<?xml version="1.0" encoding="UTF-8"?>

<!-- generated on 2021-06-17 23:40:14 by Eclipse SUMO GUI Version 1.9.2
<configuration xmlns:xsi="http://www.w3.org/2001/XMLSchema-instance" xsi:noNamespaceSchemaLocation="http://sumo.dlr.de/xsd/sumoConfiguration.xsd">

    <input>
        <net-file value="batumi.net.xml"/>
        <route-files value="batumi.rou.xml"/>
        <additional-files value="batumi.add.xml"/>
    </input>

    <output>
        <tripinfo-output value="tripinfo.xml"/>
    </output>

    <time>
        <begin value="0"/>
        <end value="2000"/>
    </time>

    <traci_server>
        <remote-port value="44183"/>
    </traci_server>

</configuration>
-->

<tripinfos xmlns:xsi="http://www.w3.org/2001/XMLSchema-instance" xsi:noNamespaceSchemaLocation="http://sumo.dlr.de/xsd/tripinfo_file.xsd">
    <tripinfo id="0" depart="0.00" departLane="403436264#0_0" departPos="5.10" departSpeed="0.00" departDelay="0.00" arrival="28.00" arrivalLane="-163004891#3_0" arrivalPos="89.95" arrivalSpeed="14.05" duration="28.00" routeLength="253.02" waitingTime="0.00" waitingCount="0" stopTime="0.00" timeLoss="7.34" rerouteNo="0" devices="tripinfo_0" vType="DEFAULT_VEHTYPE" speedFactor="1.06" vaporized=""/>
    <tripinfo id="17" depart="17.00" departLane="197990141#0_0" departPos="5.10" departSpeed="0.00" departDelay="0.00" arrival="41.00" arrivalLane="34913093#8_0" arrivalPos="13.63" arrivalSpeed="12.77" duration="24.00" routeLength="229.17" waitingTime="0.00" waitingCount="0" stopTime="0.00" timeLoss="5.11" rerouteNo="0" devices="tripinfo_17" vType="DEFAULT_VEHTYPE" speedFactor="0.94" vaporized=""/>
    <tripinfo id="26" depart="26.00" departLane="120264900#0_0" departPos="5.10" departSpeed="0.00" departDelay="0.00" arrival="61.00" arrivalLane="77872645#0_0" arrivalPos="66.49" arrivalSpeed="11.51" duration="35.00" routeLength="302.81" waitingTime="0.00" waitingCount="0" stopTime="0.00" timeLoss="8.39" rerouteNo="0" devices="tripinfo_26" vType="DEFAULT_VEHTYPE" speedFactor="0.87" vaporized=""/>
    <tripinfo id="6" depart="6.00" departLane="-164042816_0" departPos="5.10" departSpeed="0.00" departDelay="0.00" arrival="65.00" arrivalLane="-660413207#3_0" arrivalPos="105.04" arrivalSpeed="23.20" duration="59.00" routeLength="714.36" waitingTime="0.00" waitingCount="0" stopTime="0.00" timeLoss="21.11" rerouteNo="0" devices="tripinfo_6" vType="DEFAULT_VEHTYPE" speedFactor="1.05" vaporized=""/>
    <tripinfo id="10" depart="10.00" departLane="588575696#7_0" departPos="5.10" departSpeed="0.00" departDelay="0.00" arrival="66.00" arrivalLane="504988455#3_0" arrivalPos="68.11" arrivalSpeed="15.06" duration="56.00" routeLength="621.93" waitingTime="0.00" waitingCount="0" stopTime="0.00" timeLoss="8.89" rerouteNo="0" devices="tripinfo_10" vType="DEFAULT_VEHTYPE" speedFactor="1.09" vaporized=""/>
    <tripinfo id="8" depart="8.00" departLane="-660413209#4_0" departPos="5.10" departSpeed="0.00" departDelay="0.00" arrival="76.00" arrivalLane="34913566_0" arrivalPos="203.27" arrivalSpeed="12.93" duration="68.00" routeLength="679.55" waitingTime="0.00" waitingCount="0" stopTime="0.00" timeLoss="13.29" rerouteNo="0" devices="tripinfo_8" vType="DEFAULT_VEHTYPE" speedFactor="0.94" vaporized=""/>
    <tripinfo id="21" depart="21.00" departLane="-668448008#1_0" departPos="5.10" departSpeed="0.00" departDelay="0.00" arrival="76.00" arrivalLane="153973435#6_0" arrivalPos="132.99" arrivalSpeed="11.06" duration="55.00" routeLength="665.06" waitingTime="0.00" waitingCount="0" stopTime="0.00" timeLoss="13.67" rerouteNo="0" devices="tripinfo_21" vType="DEFAULT_VEHTYPE" speedFactor="1.02" vaporized=""/>
    <tripinfo id="13" depart="13.00" departLane="-34913093#1_0" departPos="5.10" departSpeed="0.00" departDelay="0.00" arrival="80.00" arrivalLane="-34913093#4_0" arrivalPos="103.41" arrivalSpeed="15.31" duration="67.00" routeLength="718.33" waitingTime="0.00" waitingCount="0" stopTime="0.00" timeLoss="18.67" rerouteNo="0" devices="tripinfo_13" vType="DEFAULT_VEHTYPE" speedFactor="1.12" vaporized=""/>
    <tripinfo id="15" depart="15.00" departLane="588888105_0" departPos="5.10" departSpeed="0.00" departDelay="0.00" arrival="82.00" arrivalLane="544150339#0_0" arrivalPos="139.97" arrivalSpeed="10.07" duration="67.00" routeLength="898.61" waitingTime="0.00" waitingCount="0" stopTime="0.00" timeLoss="15.25" rerouteNo="0" devices="tripinfo_15" vType="DEFAULT_VEHTYPE" speedFactor="0.93" vaporized=""/>
    <tripinfo id="37" depart="37.00" departLane="429311862#0_0" departPos="5.10" departSpeed="0.00" departDelay="0.00" arrival="88.00" arrivalLane="231316717#0_0" arrivalPos="86.41" arrivalSpeed="12.90" duration="51.00" routeLength="740.73" waitingTime="0.00" waitingCount="0" stopTime="0.00" timeLoss="12.17" rerouteNo="0" devices="tripinfo_37" vType="DEFAULT_VEHTYPE" speedFactor="0.97" vaporized=""/>
    <tripinfo id="34" depart="34.00" departLane="161733465#0_0" departPos="5.10" departSpeed="0.00" departDelay="0.00" arrival="90.00" arrivalLane="130629469_0" arrivalPos="223.94" arrivalSpeed="12.04" duration="56.00" routeLength="551.83" waitingTime="0.00" waitingCount="0" stopTime="0.00" timeLoss="15.48" rerouteNo="0" devices="tripinfo_34" vType="DEFAULT_VEHTYPE" speedFactor="1.17" vaporized=""/>
    <tripinfo id="35" depart="35.00" departLane="-660413207#4_0" departPos="5.10" departSpeed="0.00" departDelay="0.00" arrival="100.00" arrivalLane="832589431#2_0" arrivalPos="51.42" arrivalSpeed="15.41" duration="65.00" routeLength="816.44" waitingTime="0.00" waitingCount="0" stopTime="0.00" timeLoss="30.18" rerouteNo="0" devices="tripinfo_35" vType="DEFAULT_VEHTYPE" speedFactor="0.99" vaporized=""/>
    <tripinfo id="51" depart="53.00" departLane="453925754_0" departPos="5.10" departSpeed="0.00" departDelay="2.00" arrival="100.00" arrivalLane="34912055#3_0" arrivalPos="120.02" arrivalSpeed="18.21" duration="47.00" routeLength="584.09" waitingTime="0.00" waitingCount="0" stopTime="0.00" timeLoss="14.64" rerouteNo="0" devices="tripinfo_51" vType="DEFAULT_VEHTYPE" speedFactor="0.85" vaporized=""/>
    <tripinfo id="49" depart="49.00" departLane="892593225#7_0" departPos="5.10" departSpeed="0.00" departDelay="0.00" arrival="102.00" arrivalLane="666028721#0_0" arrivalPos="43.48" arrivalSpeed="11.89" duration="53.00" routeLength="490.96" waitingTime="0.00" waitingCount="0" stopTime="0.00" timeLoss="13.93" rerouteNo="0" devices="tripinfo_49" vType="DEFAULT_VEHTYPE" speedFactor="0.90" vaporized=""/>
    <tripinfo id="47" depart="47.00" departLane="-197990143#3_0" departPos="5.10" departSpeed="0.00" departDelay="0.00" arrival="106.00" arrivalLane="197990142#1_0" arrivalPos="70.43" arrivalSpeed="14.04" duration="59.00" routeLength="714.33" waitingTime="0.00" waitingCount="0" stopTime="0.00" timeLoss="14.51" rerouteNo="0" devices="tripinfo_47" vType="DEFAULT_VEHTYPE" speedFactor="1.09" vaporized=""/>
    <tripinfo id="48" depart="48.00" departLane="96045193#0_0" departPos="5.10" departSpeed="0.00" departDelay="0.00" arrival="106.00" arrivalLane="34911548#2_0" arrivalPos="74.05" arrivalSpeed="19.04" duration="58.00" routeLength="647.93" waitingTime="0.00" waitingCount="0" stopTime="0.00" timeLoss="17.69" rerouteNo="0" devices="tripinfo_48" vType="DEFAULT_VEHTYPE" speedFactor="1.00" vaporized=""/>
    <tripinfo id="33" depart="33.00" departLane="-668448008#3_0" departPos="5.10" departSpeed="0.00" departDelay="0.00" arrival="111.00" arrivalLane="-164921508#3_0" arrivalPos="52.74" arrivalSpeed="13.58" duration="78.00" routeLength="696.15" waitingTime="0.00" waitingCount="0" stopTime="0.00" timeLoss="18.45" rerouteNo="0" devices="tripinfo_33" vType="DEFAULT_VEHTYPE" speedFactor="1.01" vaporized=""/>
    <tripinfo id="31" depart="31.00" departLane="34913093#1_0" departPos="5.10" departSpeed="0.00" departDelay="0.00" arrival="116.00" arrivalLane="463593756#1_0" arrivalPos="13.31" arrivalSpeed="32.51" duration="85.00" routeLength="1068.94" waitingTime="1.00" waitingCount="1" stopTime="0.00" timeLoss="32.00" rerouteNo="0" devices="tripinfo_31" vType="DEFAULT_VEHTYPE" speedFactor="1.18" vaporized=""/>
    <tripinfo id="77" depart="82.00" departLane="-34913097#2_0" departPos="5.10" departSpeed="0.00" departDelay="5.00" arrival="116.00" arrivalLane="-741596484#1_0" arrivalPos="146.46" arrivalSpeed="12.78" duration="34.00" routeLength="368.70" waitingTime="0.00" waitingCount="0" stopTime="0.00" timeLoss="6.39" rerouteNo="0" devices="tripinfo_77" vType="DEFAULT_VEHTYPE" speedFactor="0.98" vaporized=""/>
    <tripinfo id="20" depart="20.00" departLane="504988455#1_0" departPos="5.10" departSpeed="0.00" departDelay="0.00" arrival="118.00" arrivalLane="-197990141#3_0" arrivalPos="229.29" arrivalSpeed="14.88" duration="98.00" routeLength="1324.35" waitingTime="0.00" waitingCount="0" stopTime="0.00" timeLoss="29.93" rerouteNo="0" devices="tripinfo_20" vType="DEFAULT_VEHTYPE" speedFactor="1.16" vaporized=""/>
    <tripinfo id="39" depart="39.00" departLane="-96045193#0_0" departPos="5.10" departSpeed="0.00" departDelay="0.00" arrival="121.00" arrivalLane="-96037251#1_0" arrivalPos="55.81" arrivalSpeed="14.25" duration="82.00" routeLength="1026.28" waitingTime="1.00" waitingCount="1" stopTime="0.00" timeLoss="27.63" rerouteNo="0" devices="tripinfo_39" vType="DEFAULT_VEHTYPE" speedFactor="1.10" vaporized=""/>
    <tripinfo id="41" depart="41.00" departLane="34913097#3_0" departPos="5.10" departSpeed="0.00" departDelay="0.00" arrival="127.00" arrivalLane="741596484#1_0" arrivalPos="146.46" arrivalSpeed="13.28" duration="86.00" routeLength="1035.15" waitingTime="0.00" waitingCount="0" stopTime="0.00" timeLoss="18.80" rerouteNo="0" devices="tripinfo_41" vType="DEFAULT_VEHTYPE" speedFactor="1.03" vaporized=""/>
    <tripinfo id="3" depart="3.00" departLane="740100500_0" departPos="5.10" departSpeed="0.00" departDelay="0.00" arrival="130.00" arrivalLane="-34912055#3_0" arrivalPos="120.02" arrivalSpeed="10.25" duration="127.00" routeLength="1996.88" waitingTime="2.00" waitingCount="1" stopTime="0.00" timeLoss="53.94" rerouteNo="0" devices="tripinfo_3" vType="DEFAULT_VEHTYPE" speedFactor="1.08" vaporized=""/>
    <tripinfo id="40" depart="40.00" departLane="34913093#4_0" departPos="5.10" departSpeed="0.00" departDelay="0.00" arrival="140.00" arrivalLane="123452001_0" arrivalPos="15.91" arrivalSpeed="9.49" duration="100.00" routeLength="1226.55" waitingTime="2.00" waitingCount="1" stopTime="0.00" timeLoss="33.13" rerouteNo="0" devices="tripinfo_40" vType="DEFAULT_VEHTYPE" speedFactor="0.90" vaporized=""/>
    <tripinfo id="43" depart="43.00" departLane="96045201#0_0" departPos="5.10" departSpeed="0.00" departDelay="0.00" arrival="142.00" arrivalLane="34907311#8_0" arrivalPos="36.29" arrivalSpeed="11.51" duration="99.00" routeLength="1073.50" waitingTime="3.00" waitingCount="1" stopTime="0.00" timeLoss="39.07" rerouteNo="0" devices="tripinfo_43" vType="DEFAULT_VEHTYPE" speedFactor="1.09" vaporized=""/>
    <tripinfo id="84" depart="84.00" departLane="-660413209#2_0" departPos="5.10" departSpeed="0.00" departDelay="0.00" arrival="142.00" arrivalLane="-34913566_0" arrivalPos="201.75" arrivalSpeed="12.86" duration="58.00" routeLength="595.13" waitingTime="0.00" waitingCount="0" stopTime="0.00" timeLoss="13.23" rerouteNo="0" devices="tripinfo_84" vType="DEFAULT_VEHTYPE" speedFactor="1.02" vaporized=""/>
    <tripinfo id="95" depart="95.00" departLane="25154597#9_0" departPos="5.10" departSpeed="0.00" departDelay="0.00" arrival="144.00" arrivalLane="130629484#1_0" arrivalPos="72.12" arrivalSpeed="8.98" duration="49.00" routeLength="396.54" waitingTime="0.00" waitingCount="0" stopTime="0.00" timeLoss="7.05" rerouteNo="0" devices="tripinfo_95" vType="DEFAULT_VEHTYPE" speedFactor="0.83" vaporized=""/>
    <tripinfo id="54" depart="54.00" departLane="296478462#7_0" departPos="5.10" departSpeed="0.00" departDelay="0.00" arrival="147.00" arrivalLane="885090847#1_0" arrivalPos="129.75" arrivalSpeed="22.18" duration="93.00" routeLength="1308.07" waitingTime="0.00" waitingCount="0" stopTime="0.00" timeLoss="26.03" rerouteNo="0" devices="tripinfo_54" vType="DEFAULT_VEHTYPE" speedFactor="1.02" vaporized=""/>
    <tripinfo id="27" depart="27.00" departLane="403436268#3_0" departPos="5.10" departSpeed="0.00" departDelay="0.00" arrival="153.00" arrivalLane="392557280#5_0" arrivalPos="67.98" arrivalSpeed="12.42" duration="126.00" routeLength="1382.09" waitingTime="0.00" waitingCount="0" stopTime="0.00" timeLoss="30.73" rerouteNo="0" devices="tripinfo_27" vType="DEFAULT_VEHTYPE" speedFactor="0.92" vaporized=""/>
    <tripinfo id="5" depart="5.00" departLane="-660413209#4_0" departPos="5.10" departSpeed="0.00" departDelay="0.00" arrival="156.00" arrivalLane="34907311#3_0" arrivalPos="121.05" arrivalSpeed="8.74" duration="151.00" routeLength="1669.44" waitingTime="0.00" waitingCount="0" stopTime="0.00" timeLoss="34.75" rerouteNo="0" devices="tripinfo_5" vType="DEFAULT_VEHTYPE" speedFactor="0.83" vaporized=""/>
    <tripinfo id="61" depart="61.00" departLane="547303098#0_0" departPos="5.10" departSpeed="0.00" departDelay="0.00" arrival="156.00" arrivalLane="34911551#1_0" arrivalPos="49.44" arrivalSpeed="13.01" duration="95.00" routeLength="1417.17" waitingTime="0.00" waitingCount="0" stopTime="0.00" timeLoss="25.18" rerouteNo="0" devices="tripinfo_61" vType="DEFAULT_VEHTYPE" speedFactor="0.97" vaporized=""/>
    <tripinfo id="11" depart="11.00" departLane="163004891#0_0" departPos="5.10" departSpeed="0.00" departDelay="0.00" arrival="158.00" arrivalLane="-547303095#0_0" arrivalPos="39.32" arrivalSpeed="13.08" duration="147.00" routeLength="1912.45" waitingTime="0.00" waitingCount="0" stopTime="0.00" timeLoss="47.26" rerouteNo="0" devices="tripinfo_11" vType="DEFAULT_VEHTYPE" speedFactor="1.03" vaporized=""/>
    <tripinfo id="19" depart="19.00" departLane="668448007#1_0" departPos="5.10" departSpeed="0.00" departDelay="0.00" arrival="162.00" arrivalLane="34913097#4_0" arrivalPos="138.24" arrivalSpeed="12.05" duration="143.00" routeLength="1892.32" waitingTime="9.00" waitingCount="1" stopTime="0.00" timeLoss="39.99" rerouteNo="0" devices="tripinfo_19" vType="DEFAULT_VEHTYPE" speedFactor="0.94" vaporized=""/>
    <tripinfo id="102" depart="102.00" departLane="34906222#4_0" departPos="5.10" departSpeed="0.00" departDelay="0.00" arrival="162.00" arrivalLane="-668448008#4_0" arrivalPos="52.91" arrivalSpeed="13.37" duration="60.00" routeLength="677.18" waitingTime="6.00" waitingCount="2" stopTime="0.00" timeLoss="27.71" rerouteNo="0" devices="tripinfo_102" vType="DEFAULT_VEHTYPE" speedFactor="1.10" vaporized=""/>
    <tripinfo id="16" depart="16.00" departLane="34911548#0_0" departPos="5.10" departSpeed="0.00" departDelay="0.00" arrival="163.00" arrivalLane="892593798#0_0" arrivalPos="85.12" arrivalSpeed="11.72" duration="147.00" routeLength="2026.12" waitingTime="0.00" waitingCount="0" stopTime="0.00" timeLoss="34.30" rerouteNo="0" devices="tripinfo_16" vType="DEFAULT_VEHTYPE" speedFactor="0.88" vaporized=""/>
    <tripinfo id="32" depart="32.00" departLane="660413206#2_0" departPos="5.10" departSpeed="0.00" departDelay="0.00" arrival="165.00" arrivalLane="547303098#1_0" arrivalPos="19.23" arrivalSpeed="14.57" duration="133.00" routeLength="1434.85" waitingTime="17.00" waitingCount="2" stopTime="0.00" timeLoss="60.79" rerouteNo="0" devices="tripinfo_32" vType="DEFAULT_VEHTYPE" speedFactor="1.15" vaporized=""/>
    <tripinfo id="7" depart="7.00" departLane="403436269_0" departPos="5.10" departSpeed="0.00" departDelay="0.00" arrival="166.00" arrivalLane="34913093#2_0" arrivalPos="95.08" arrivalSpeed="12.17" duration="159.00" routeLength="1709.83" waitingTime="0.00" waitingCount="0" stopTime="0.00" timeLoss="31.40" rerouteNo="0" devices="tripinfo_7" vType="DEFAULT_VEHTYPE" speedFactor="0.89" vaporized=""/>
    <tripinfo id="38" depart="38.00" departLane="758475703#0_0" departPos="5.10" departSpeed="0.00" departDelay="0.00" arrival="166.00" arrivalLane="306107568#1_1" arrivalPos="148.84" arrivalSpeed="16.08" duration="128.00" routeLength="1663.79" waitingTime="18.00" waitingCount="1" stopTime="0.00" timeLoss="46.86" rerouteNo="0" devices="tripinfo_38" vType="DEFAULT_VEHTYPE" speedFactor="1.18" vaporized=""/>
    <tripinfo id="79" depart="79.00" departLane="-668448008#4_0" departPos="5.10" departSpeed="0.00" departDelay="0.00" arrival="166.00" arrivalLane="-692396787#2_0" arrivalPos="103.26" arrivalSpeed="21.59" duration="87.00" routeLength="1307.25" waitingTime="0.00" waitingCount="0" stopTime="0.00" timeLoss="23.91" rerouteNo="0" devices="tripinfo_79" vType="DEFAULT_VEHTYPE" speedFactor="0.98" vaporized=""/>
    <tripinfo id="117" depart="117.00" departLane="-692396787#2_0" departPos="5.10" departSpeed="0.00" departDelay="0.00" arrival="167.00" arrivalLane="-34913097#3_0" arrivalPos="238.98" arrivalSpeed="14.99" duration="50.00" routeLength="591.44" waitingTime="0.00" waitingCount="0" stopTime="0.00" timeLoss="12.28" rerouteNo="0" devices="tripinfo_117" vType="DEFAULT_VEHTYPE" speedFactor="1.10" vaporized=""/>
    <tripinfo id="115" depart="115.00" departLane="-34906023_0" departPos="5.10" departSpeed="0.00" departDelay="0.00" arrival="168.00" arrivalLane="-626678283#0_0" arrivalPos="180.20" arrivalSpeed="15.25" duration="53.00" routeLength="552.42" waitingTime="0.00" waitingCount="0" stopTime="0.00" timeLoss="15.21" rerouteNo="0" devices="tripinfo_115" vType="DEFAULT_VEHTYPE" speedFactor="1.10" vaporized=""/>
    <tripinfo id="53" depart="53.00" departLane="-34913096#3_0" departPos="5.10" departSpeed="0.00" departDelay="0.00" arrival="169.00" arrivalLane="294883559_0" arrivalPos="16.51" arrivalSpeed="26.39" duration="116.00" routeLength="1737.16" waitingTime="3.00" waitingCount="1" stopTime="0.00" timeLoss="45.86" rerouteNo="0" devices="tripinfo_53" vType="DEFAULT_VEHTYPE" speedFactor="1.17" vaporized=""/>
    <tripinfo id="68" depart="68.00" departLane="-231316680_0" departPos="5.10" departSpeed="0.00" departDelay="0.00" arrival="169.00" arrivalLane="547303095#0_0" arrivalPos="39.32" arrivalSpeed="19.60" duration="101.00" routeLength="1129.99" waitingTime="0.00" waitingCount="0" stopTime="0.00" timeLoss="21.76" rerouteNo="0" devices="tripinfo_68" vType="DEFAULT_VEHTYPE" speedFactor="0.91" vaporized=""/>
    <tripinfo id="72" depart="72.00" departLane="294404054#0_0" departPos="5.10" departSpeed="0.00" departDelay="0.00" arrival="169.00" arrivalLane="-668448008#1_0" arrivalPos="43.73" arrivalSpeed="14.72" duration="97.00" routeLength="927.91" waitingTime="0.00" waitingCount="0" stopTime="0.00" timeLoss="23.26" rerouteNo="0" devices="tripinfo_72" vType="DEFAULT_VEHTYPE" speedFactor="1.02" vaporized=""/>
    <tripinfo id="25" depart="25.00" departLane="175026514_0" departPos="5.10" departSpeed="0.00" departDelay="0.00" arrival="170.00" arrivalLane="-660413215_0" arrivalPos="170.23" arrivalSpeed="11.04" duration="145.00" routeLength="1257.05" waitingTime="24.00" waitingCount="1" stopTime="0.00" timeLoss="49.24" rerouteNo="0" devices="tripinfo_25" vType="DEFAULT_VEHTYPE" speedFactor="0.83" vaporized=""/>
    <tripinfo id="90" depart="90.00" departLane="512927444#7_0" departPos="5.10" departSpeed="0.00" departDelay="0.00" arrival="170.00" arrivalLane="452254469#1_0" arrivalPos="39.84" arrivalSpeed="10.60" duration="80.00" routeLength="786.47" waitingTime="0.00" waitingCount="0" stopTime="0.00" timeLoss="15.17" rerouteNo="0" devices="tripinfo_90" vType="DEFAULT_VEHTYPE" speedFactor="1.04" vaporized=""/>
    <tripinfo id="127" depart="129.00" departLane="96045201#0_0" departPos="5.10" departSpeed="0.00" departDelay="2.00" arrival="170.00" arrivalLane="96045193#0_0" arrivalPos="48.27" arrivalSpeed="14.13" duration="41.00" routeLength="380.35" waitingTime="0.00" waitingCount="0" stopTime="0.00" timeLoss="11.21" rerouteNo="0" devices="tripinfo_127" vType="DEFAULT_VEHTYPE" speedFactor="1.02" vaporized=""/>
    <tripinfo id="30" depart="30.00" departLane="96037251#2_0" departPos="5.10" departSpeed="0.00" departDelay="0.00" arrival="175.00" arrivalLane="403436268#3_0" arrivalPos="111.19" arrivalSpeed="12.25" duration="145.00" routeLength="1724.01" waitingTime="0.00" waitingCount="0" stopTime="0.00" timeLoss="36.06" rerouteNo="0" devices="tripinfo_30" vType="DEFAULT_VEHTYPE" speedFactor="0.93" vaporized=""/>
    <tripinfo id="65" depart="65.00" departLane="161414402#0_0" departPos="5.10" departSpeed="0.00" departDelay="0.00" arrival="176.00" arrivalLane="-229600204_0" arrivalPos="126.83" arrivalSpeed="13.28" duration="111.00" routeLength="1121.36" waitingTime="0.00" waitingCount="0" stopTime="0.00" timeLoss="13.39" rerouteNo="0" devices="tripinfo_65" vType="DEFAULT_VEHTYPE" speedFactor="0.99" vaporized=""/>
    <tripinfo id="99" depart="99.00" departLane="96045201#1_0" departPos="5.10" departSpeed="0.00" departDelay="0.00" arrival="177.00" arrivalLane="660413206#1_0" arrivalPos="16.97" arrivalSpeed="12.73" duration="78.00" routeLength="791.00" waitingTime="13.00" waitingCount="1" stopTime="0.00" timeLoss="36.79" rerouteNo="0" devices="tripinfo_99" vType="DEFAULT_VEHTYPE" speedFactor="1.01" vaporized=""/>
    <tripinfo id="136" depart="136.00" departLane="442377543_0" departPos="5.10" departSpeed="0.00" departDelay="0.00" arrival="177.00" arrivalLane="82494141#1_0" arrivalPos="39.02" arrivalSpeed="12.25" duration="41.00" routeLength="399.95" waitingTime="0.00" waitingCount="0" stopTime="0.00" timeLoss="7.33" rerouteNo="0" devices="tripinfo_136" vType="DEFAULT_VEHTYPE" speedFactor="0.96" vaporized=""/>
    <tripinfo id="138" depart="138.00" departLane="-34913096#1_0" departPos="5.10" departSpeed="0.00" departDelay="0.00" arrival="184.00" arrivalLane="34913096#1_0" arrivalPos="294.82" arrivalSpeed="16.79" duration="46.00" routeLength="589.19" waitingTime="0.00" waitingCount="0" stopTime="0.00" timeLoss="9.30" rerouteNo="0" devices="tripinfo_138" vType="DEFAULT_VEHTYPE" speedFactor="1.23" vaporized=""/>
    <tripinfo id="69" depart="69.00" departLane="547303095#0_0" departPos="5.10" departSpeed="0.00" departDelay="0.00" arrival="188.00" arrivalLane="-34913565#0_0" arrivalPos="206.16" arrivalSpeed="11.47" duration="119.00" routeLength="1216.04" waitingTime="16.00" waitingCount="1" stopTime="0.00" timeLoss="42.46" rerouteNo="0" devices="tripinfo_69" vType="DEFAULT_VEHTYPE" speedFactor="0.91" vaporized=""/>
    <tripinfo id="93" depart="93.00" departLane="668448007#1_0" departPos="5.10" departSpeed="0.00" departDelay="0.00" arrival="188.00" arrivalLane="-96037251#2_0" arrivalPos="105.90" arrivalSpeed="13.52" duration="95.00" routeLength="1515.95" waitingTime="0.00" waitingCount="0" stopTime="0.00" timeLoss="21.93" rerouteNo="0" devices="tripinfo_93" vType="DEFAULT_VEHTYPE" speedFactor="1.02" vaporized=""/>
    <tripinfo id="46" depart="46.00" departLane="588575477_0" departPos="5.10" departSpeed="0.00" departDelay="0.00" arrival="189.00" arrivalLane="294568946#4_0" arrivalPos="188.98" arrivalSpeed="11.05" duration="143.00" routeLength="1436.92" waitingTime="13.00" waitingCount="2" stopTime="0.00" timeLoss="44.05" rerouteNo="0" devices="tripinfo_46" vType="DEFAULT_VEHTYPE" speedFactor="1.04" vaporized=""/>
    <tripinfo id="75" depart="75.00" departLane="96037251#5_0" departPos="5.10" departSpeed="0.00" departDelay="0.00" arrival="189.00" arrivalLane="429311862#1_0" arrivalPos="102.95" arrivalSpeed="20.13" duration="114.00" routeLength="1594.10" waitingTime="0.00" waitingCount="0" stopTime="0.00" timeLoss="29.77" rerouteNo="0" devices="tripinfo_75" vType="DEFAULT_VEHTYPE" speedFactor="1.06" vaporized=""/>
    <tripinfo id="60" depart="60.00" departLane="547303094#0_0" departPos="5.10" departSpeed="0.00" departDelay="0.00" arrival="195.00" arrivalLane="34912056#1_0" arrivalPos="74.18" arrivalSpeed="13.73" duration="135.00" routeLength="1576.66" waitingTime="5.00" waitingCount="1" stopTime="0.00" timeLoss="54.81" rerouteNo="0" devices="tripinfo_60" vType="DEFAULT_VEHTYPE" speedFactor="1.02" vaporized=""/>
    <tripinfo id="76" depart="76.00" departLane="296206637#1_0" departPos="5.10" departSpeed="0.00" departDelay="0.00" arrival="195.00" arrivalLane="34907316#0_0" arrivalPos="67.20" arrivalSpeed="12.19" duration="119.00" routeLength="1093.54" waitingTime="0.00" waitingCount="0" stopTime="0.00" timeLoss="19.31" rerouteNo="0" devices="tripinfo_76" vType="DEFAULT_VEHTYPE" speedFactor="0.96" vaporized=""/>
    <tripinfo id="28" depart="28.00" departLane="-547303095#5_0" departPos="5.10" departSpeed="0.00" departDelay="0.00" arrival="197.00" arrivalLane="544150339#0_0" arrivalPos="139.97" arrivalSpeed="10.03" duration="169.00" routeLength="2307.06" waitingTime="11.00" waitingCount="2" stopTime="0.00" timeLoss="56.43" rerouteNo="0" devices="tripinfo_28" vType="DEFAULT_VEHTYPE" speedFactor="0.95" vaporized=""/>
    <tripinfo id="91" depart="91.00" departLane="892594415#1_0" departPos="5.10" departSpeed="0.00" departDelay="0.00" arrival="197.00" arrivalLane="-34913093#4_0" arrivalPos="103.41" arrivalSpeed="13.06" duration="106.00" routeLength="1430.92" waitingTime="0.00" waitingCount="0" stopTime="0.00" timeLoss="31.24" rerouteNo="0" devices="tripinfo_91" vType="DEFAULT_VEHTYPE" speedFactor="1.01" vaporized=""/>
    <tripinfo id="23" depart="23.00" departLane="-34913093#5_0" departPos="5.10" departSpeed="0.00" departDelay="0.00" arrival="199.00" arrivalLane="130629484#1_0" arrivalPos="72.12" arrivalSpeed="9.83" duration="176.00" routeLength="2071.31" waitingTime="0.00" waitingCount="0" stopTime="0.00" timeLoss="43.86" rerouteNo="0" devices="tripinfo_23" vType="DEFAULT_VEHTYPE" speedFactor="0.98" vaporized=""/>
    <tripinfo id="111" depart="111.00" departLane="34911551#1_0" departPos="5.10" departSpeed="0.00" departDelay="0.00" arrival="199.00" arrivalLane="544283317_0" arrivalPos="222.12" arrivalSpeed="13.97" duration="88.00" routeLength="1102.54" waitingTime="0.00" waitingCount="0" stopTime="0.00" timeLoss="22.81" rerouteNo="0" devices="tripinfo_111" vType="DEFAULT_VEHTYPE" speedFactor="1.06" vaporized=""/>
    <tripinfo id="105" depart="105.00" departLane="-96045193#2_0" departPos="5.10" departSpeed="0.00" departDelay="0.00" arrival="203.00" arrivalLane="547303102#0_0" arrivalPos="120.80" arrivalSpeed="12.58" duration="98.00" routeLength="1184.77" waitingTime="0.00" waitingCount="0" stopTime="0.00" timeLoss="30.37" rerouteNo="0" devices="tripinfo_105" vType="DEFAULT_VEHTYPE" speedFactor="0.97" vaporized=""/>
    <tripinfo id="151" depart="151.00" departLane="633714582_0" departPos="5.10" departSpeed="0.00" departDelay="0.00" arrival="204.00" arrivalLane="34913565#0_0" arrivalPos="206.16" arrivalSpeed="14.82" duration="53.00" routeLength="644.90" waitingTime="0.00" waitingCount="0" stopTime="0.00" timeLoss="16.98" rerouteNo="0" devices="tripinfo_151" vType="DEFAULT_VEHTYPE" speedFactor="1.14" vaporized=""/>
    <tripinfo id="52" depart="52.00" departLane="120264900#0_0" departPos="5.10" departSpeed="0.00" departDelay="0.00" arrival="205.00" arrivalLane="403436268#4_0" arrivalPos="97.69" arrivalSpeed="11.36" duration="153.00" routeLength="1377.03" waitingTime="4.00" waitingCount="2" stopTime="0.00" timeLoss="35.73" rerouteNo="0" devices="tripinfo_52" vType="DEFAULT_VEHTYPE" speedFactor="0.85" vaporized=""/>
    <tripinfo id="150" depart="150.00" departLane="741596485#1_0" departPos="5.10" departSpeed="0.00" departDelay="0.00" arrival="205.00" arrivalLane="34913093#3_0" arrivalPos="91.73" arrivalSpeed="10.19" duration="55.00" routeLength="371.55" waitingTime="11.00" waitingCount="1" stopTime="0.00" timeLoss="21.55" rerouteNo="0" devices="tripinfo_150" vType="DEFAULT_VEHTYPE" speedFactor="0.73" vaporized=""/>
    <tripinfo id="86" depart="88.00" departLane="34888312#2_0" departPos="1.57" departSpeed="0.00" departDelay="2.00" arrival="206.00" arrivalLane="547303102#0_0" arrivalPos="120.80" arrivalSpeed="15.34" duration="118.00" routeLength="1119.07" waitingTime="3.00" waitingCount="2" stopTime="0.00" timeLoss="44.78" rerouteNo="0" devices="tripinfo_86" vType="DEFAULT_VEHTYPE" speedFactor="1.15" vaporized=""/>
    <tripinfo id="137" depart="137.00" departLane="-34913565#0_0" departPos="5.10" departSpeed="0.00" departDelay="0.00" arrival="206.00" arrivalLane="-34913097#0_0" arrivalPos="210.95" arrivalSpeed="13.32" duration="69.00" routeLength="759.79" waitingTime="0.00" waitingCount="0" stopTime="0.00" timeLoss="12.96" rerouteNo="0" devices="tripinfo_137" vType="DEFAULT_VEHTYPE" speedFactor="1.04" vaporized=""/>
    <tripinfo id="160" depart="160.00" departLane="668448007#4_0" departPos="5.10" departSpeed="0.00" departDelay="0.00" arrival="209.00" arrivalLane="892593798#3_0" arrivalPos="75.27" arrivalSpeed="12.49" duration="49.00" routeLength="546.09" waitingTime="0.00" waitingCount="0" stopTime="0.00" timeLoss="12.28" rerouteNo="0" devices="tripinfo_160" vType="DEFAULT_VEHTYPE" speedFactor="0.93" vaporized=""/>
    <tripinfo id="14" depart="14.00" departLane="660413207#2_0" departPos="5.10" departSpeed="0.00" departDelay="0.00" arrival="218.00" arrivalLane="391148318_0" arrivalPos="135.99" arrivalSpeed="10.28" duration="204.00" routeLength="2257.78" waitingTime="0.00" waitingCount="0" stopTime="0.00" timeLoss="49.41" rerouteNo="0" devices="tripinfo_14" vType="DEFAULT_VEHTYPE" speedFactor="0.99" vaporized=""/>
    <tripinfo id="143" depart="143.00" departLane="660413207#2_0" departPos="5.10" departSpeed="0.00" departDelay="0.00" arrival="218.00" arrivalLane="-34913093#1_0" arrivalPos="140.66" arrivalSpeed="12.38" duration="75.00" routeLength="608.69" waitingTime="6.00" waitingCount="2" stopTime="0.00" timeLoss="32.47" rerouteNo="0" devices="tripinfo_143" vType="DEFAULT_VEHTYPE" speedFactor="0.95" vaporized=""/>