<?xml version="1.0" encoding="UTF-8"?>

<!-- generated on 2021-06-17 00:09:33 by Eclipse SUMO GUI Version 1.9.2
<configuration xmlns:xsi="http://www.w3.org/2001/XMLSchema-instance" xsi:noNamespaceSchemaLocation="http://sumo.dlr.de/xsd/sumoConfiguration.xsd">

    <input>
        <net-file value="grid.net.xml"/>
        <route-files value="grid.rou.xml"/>
        <additional-files value="grid.add.xml"/>
    </input>

    <output>
        <tripinfo-output value="tripinfo.xml"/>
    </output>

    <traci_server>
        <remote-port value="57401"/>
    </traci_server>

</configuration>
-->

<tripinfos xmlns:xsi="http://www.w3.org/2001/XMLSchema-instance" xsi:noNamespaceSchemaLocation="http://sumo.dlr.de/xsd/tripinfo_file.xsd">
    <tripinfo id="13" depart="7.00" departLane="A2A1_0" departPos="5.10" departSpeed="0.00" departDelay="0.50" arrival="16.00" arrivalLane="A2A1_0" arrivalPos="79.20" arrivalSpeed="15.92" duration="9.00" routeLength="74.10" waitingTime="0.00" waitingCount="0" stopTime="0.00" timeLoss="7.40" rerouteNo="0" devices="tripinfo_13" vType="DEFAULT_VEHTYPE" speedFactor="1.12" vaporized=""/>
    <tripinfo id="32" depart="16.00" departLane="C2C1_0" departPos="5.10" departSpeed="0.00" departDelay="0.00" arrival="45.00" arrivalLane="C1B1_1" arrivalPos="179.20" arrivalSpeed="9.61" duration="29.00" routeLength="262.33" waitingTime="2.00" waitingCount="1" stopTime="0.00" timeLoss="22.22" rerouteNo="0" devices="tripinfo_32" vType="DEFAULT_VEHTYPE" speedFactor="1.01" vaporized=""/>
    <tripinfo id="79" depart="40.00" departLane="A4B4_0" departPos="5.10" departSpeed="0.00" departDelay="0.50" arrival="53.00" arrivalLane="A4B4_1" arrivalPos="179.20" arrivalSpeed="26.98" duration="13.00" routeLength="174.10" waitingTime="0.00" waitingCount="0" stopTime="0.00" timeLoss="9.00" rerouteNo="0" devices="tripinfo_79" vType="DEFAULT_VEHTYPE" speedFactor="1.09" vaporized=""/>
    <tripinfo id="26" depart="13.00" departLane="A5B5_0" departPos="5.10" departSpeed="0.00" departDelay="0.00" arrival="54.00" arrivalLane="C4C3_1" arrivalPos="79.20" arrivalSpeed="28.67" duration="41.00" routeLength="573.04" waitingTime="0.00" waitingCount="0" stopTime="0.00" timeLoss="25.66" rerouteNo="0" devices="tripinfo_26" vType="DEFAULT_VEHTYPE" speedFactor="0.92" vaporized=""/>
    <tripinfo id="44" depart="22.00" departLane="A2A1_0" departPos="5.10" departSpeed="0.00" departDelay="0.00" arrival="58.00" arrivalLane="A1A0_0" arrivalPos="83.20" arrivalSpeed="19.63" duration="36.00" routeLength="178.10" waitingTime="12.00" waitingCount="1" stopTime="0.00" timeLoss="31.75" rerouteNo="0" devices="tripinfo_44" vType="DEFAULT_VEHTYPE" speedFactor="1.04" vaporized=""/>
    <tripinfo id="5" depart="3.00" departLane="A4B4_0" departPos="5.10" departSpeed="0.00" departDelay="0.50" arrival="61.00" arrivalLane="B3A3_0" arrivalPos="179.20" arrivalSpeed="27.07" duration="58.00" routeLength="450.56" waitingTime="14.00" waitingCount="2" stopTime="0.00" timeLoss="43.16" rerouteNo="0" devices="tripinfo_5" vType="DEFAULT_VEHTYPE" speedFactor="0.83" vaporized=""/>
    <tripinfo id="18" depart="9.00" departLane="C2B2_0" departPos="5.10" departSpeed="0.00" departDelay="0.00" arrival="61.00" arrivalLane="B4B5_0" arrivalPos="79.20" arrivalSpeed="28.17" duration="52.00" routeLength="462.33" waitingTime="10.00" waitingCount="2" stopTime="0.00" timeLoss="39.73" rerouteNo="0" devices="tripinfo_18" vType="DEFAULT_VEHTYPE" speedFactor="0.94" vaporized=""/>
    <tripinfo id="35" depart="18.00" departLane="A4A5_0" departPos="5.10" departSpeed="0.00" departDelay="0.50" arrival="63.00" arrivalLane="C4C3_1" arrivalPos="79.20" arrivalSpeed="26.94" duration="45.00" routeLength="658.82" waitingTime="0.00" waitingCount="0" stopTime="0.00" timeLoss="29.38" rerouteNo="0" devices="tripinfo_35" vType="DEFAULT_VEHTYPE" speedFactor="1.02" vaporized=""/>
    <tripinfo id="19" depart="10.00" departLane="C3B3_0" departPos="5.10" departSpeed="0.00" departDelay="0.50" arrival="70.00" arrivalLane="B4A4_0" arrivalPos="179.20" arrivalSpeed="9.97" duration="60.00" routeLength="460.89" waitingTime="15.00" waitingCount="2" stopTime="0.00" timeLoss="48.68" rerouteNo="0" devices="tripinfo_19" vType="DEFAULT_VEHTYPE" speedFactor="1.16" vaporized=""/>
    <tripinfo id="51" depart="26.00" departLane="B5B4_0" departPos="5.10" departSpeed="0.00" departDelay="0.50" arrival="70.00" arrivalLane="B3B2_0" arrivalPos="79.20" arrivalSpeed="5.84" duration="44.00" routeLength="274.10" waitingTime="11.00" waitingCount="2" stopTime="0.00" timeLoss="38.64" rerouteNo="0" devices="tripinfo_51" vType="DEFAULT_VEHTYPE" speedFactor="1.17" vaporized=""/>
    <tripinfo id="127" depart="64.00" departLane="C5C4_0" departPos="5.10" departSpeed="0.00" departDelay="0.50" arrival="73.00" arrivalLane="C5C4_0" arrivalPos="83.20" arrivalSpeed="18.49" duration="9.00" routeLength="78.10" waitingTime="0.00" waitingCount="0" stopTime="0.00" timeLoss="6.37" rerouteNo="0" devices="tripinfo_127" vType="DEFAULT_VEHTYPE" speedFactor="0.82" vaporized=""/>
    <tripinfo id="47" depart="24.00" departLane="A1A2_0" departPos="5.10" departSpeed="0.00" departDelay="0.50" arrival="77.00" arrivalLane="B1B0_0" arrivalPos="79.20" arrivalSpeed="14.21" duration="53.00" routeLength="450.56" waitingTime="7.00" waitingCount="1" stopTime="0.00" timeLoss="38.97" rerouteNo="0" devices="tripinfo_47" vType="DEFAULT_VEHTYPE" speedFactor="0.90" vaporized=""/>
    <tripinfo id="38" depart="19.00" departLane="C4B4_0" departPos="5.10" departSpeed="0.00" departDelay="0.00" arrival="78.00" arrivalLane="B2B1_1" arrivalPos="79.20" arrivalSpeed="17.42" duration="59.00" routeLength="472.66" waitingTime="7.00" waitingCount="2" stopTime="0.00" timeLoss="47.70" rerouteNo="0" devices="tripinfo_38" vType="DEFAULT_VEHTYPE" speedFactor="1.10" vaporized=""/>
    <tripinfo id="25" depart="13.00" departLane="B1A1_0" departPos="5.10" departSpeed="0.00" departDelay="0.50" arrival="80.00" arrivalLane="A4A5_1" arrivalPos="83.20" arrivalSpeed="29.37" duration="67.00" routeLength="566.33" waitingTime="20.00" waitingCount="1" stopTime="0.00" timeLoss="50.27" rerouteNo="0" devices="tripinfo_25" vType="DEFAULT_VEHTYPE" speedFactor="0.87" vaporized=""/>
    <tripinfo id="46" depart="23.00" departLane="C1C0_0" departPos="5.10" departSpeed="0.00" departDelay="0.00" arrival="80.00" arrivalLane="B1C1_0" arrivalPos="179.20" arrivalSpeed="26.34" duration="57.00" routeLength="540.34" waitingTime="7.00" waitingCount="1" stopTime="0.00" timeLoss="42.12" rerouteNo="0" devices="tripinfo_46" vType="DEFAULT_VEHTYPE" speedFactor="1.00" vaporized=""/>
    <tripinfo id="60" depart="33.00" departLane="C1B1_0" departPos="5.10" departSpeed="0.00" departDelay="3.00" arrival="81.00" arrivalLane="B3B4_0" arrivalPos="79.20" arrivalSpeed="17.34" duration="48.00" routeLength="462.33" waitingTime="3.00" waitingCount="1" stopTime="0.00" timeLoss="37.30" rerouteNo="0" devices="tripinfo_60" vType="DEFAULT_VEHTYPE" speedFactor="1.08" vaporized=""/>
    <tripinfo id="137" depart="69.00" departLane="A2B2_0" departPos="5.10" departSpeed="0.00" departDelay="0.50" arrival="83.00" arrivalLane="A2B2_0" arrivalPos="179.20" arrivalSpeed="26.29" duration="14.00" routeLength="174.10" waitingTime="0.00" waitingCount="0" stopTime="0.00" timeLoss="9.64" rerouteNo="0" devices="tripinfo_137" vType="DEFAULT_VEHTYPE" speedFactor="1.02" vaporized=""/>
    <tripinfo id="50" depart="25.00" departLane="A0A1_0" departPos="5.10" departSpeed="0.00" departDelay="0.00" arrival="85.00" arrivalLane="C0B0_0" arrivalPos="183.20" arrivalSpeed="27.16" duration="60.00" routeLength="744.34" waitingTime="0.00" waitingCount="0" stopTime="0.00" timeLoss="37.83" rerouteNo="0" devices="tripinfo_50" vType="DEFAULT_VEHTYPE" speedFactor="0.85" vaporized=""/>
    <tripinfo id="3" depart="2.00" departLane="C3C2_0" departPos="5.10" departSpeed="0.00" departDelay="0.50" arrival="89.00" arrivalLane="A1B1_0" arrivalPos="179.20" arrivalSpeed="4.71" duration="87.00" routeLength="759.44" waitingTime="10.00" waitingCount="3" stopTime="0.00" timeLoss="67.96" rerouteNo="0" devices="tripinfo_3" vType="DEFAULT_VEHTYPE" speedFactor="1.08" vaporized=""/>
    <tripinfo id="65" depart="33.00" departLane="B0A0_0" departPos="5.10" departSpeed="0.00" departDelay="0.50" arrival="89.00" arrivalLane="A1A2_1" arrivalPos="79.20" arrivalSpeed="5.32" duration="56.00" routeLength="363.88" waitingTime="14.00" waitingCount="1" stopTime="0.00" timeLoss="46.58" rerouteNo="0" devices="tripinfo_65" vType="DEFAULT_VEHTYPE" speedFactor="0.88" vaporized=""/>
    <tripinfo id="106" depart="53.00" departLane="B2B1_0" departPos="5.10" departSpeed="0.00" departDelay="0.00" arrival="89.00" arrivalLane="B1C1_0" arrivalPos="179.20" arrivalSpeed="9.47" duration="36.00" routeLength="272.66" waitingTime="5.00" waitingCount="1" stopTime="0.00" timeLoss="28.46" rerouteNo="0" devices="tripinfo_106" vType="DEFAULT_VEHTYPE" speedFactor="1.01" vaporized=""/>
    <tripinfo id="122" depart="61.00" departLane="A4A5_0" departPos="5.10" departSpeed="0.00" departDelay="0.00" arrival="89.00" arrivalLane="B5C5_1" arrivalPos="183.20" arrivalSpeed="39.22" duration="28.00" routeLength="473.04" waitingTime="0.00" waitingCount="0" stopTime="0.00" timeLoss="16.77" rerouteNo="0" devices="tripinfo_122" vType="DEFAULT_VEHTYPE" speedFactor="1.03" vaporized=""/>
    <tripinfo id="4" depart="2.00" departLane="B1C1_0" departPos="5.10" departSpeed="0.00" departDelay="0.00" arrival="92.00" arrivalLane="A0B0_1" arrivalPos="183.20" arrivalSpeed="28.09" duration="90.00" routeLength="1069.86" waitingTime="6.00" waitingCount="1" stopTime="0.00" timeLoss="61.28" rerouteNo="0" devices="tripinfo_4" vType="DEFAULT_VEHTYPE" speedFactor="1.03" vaporized=""/>
    <tripinfo id="31" depart="16.00" departLane="B3C3_0" departPos="5.10" departSpeed="0.00" departDelay="0.50" arrival="92.00" arrivalLane="B5B4_1" arrivalPos="79.20" arrivalSpeed="18.73" duration="76.00" routeLength="671.31" waitingTime="13.00" waitingCount="2" stopTime="0.00" timeLoss="58.14" rerouteNo="0" devices="tripinfo_31" vType="DEFAULT_VEHTYPE" speedFactor="1.15" vaporized=""/>
    <tripinfo id="21" depart="11.00" departLane="A4B4_0" departPos="5.10" departSpeed="0.00" departDelay="0.50" arrival="96.00" arrivalLane="B0A0_0" arrivalPos="183.20" arrivalSpeed="22.97" duration="85.00" routeLength="754.56" waitingTime="10.00" waitingCount="3" stopTime="0.00" timeLoss="65.38" rerouteNo="0" devices="tripinfo_21" vType="DEFAULT_VEHTYPE" speedFactor="1.01" vaporized=""/>
    <tripinfo id="71" depart="36.00" departLane="A5B5_0" departPos="5.10" departSpeed="0.00" departDelay="0.50" arrival="100.00" arrivalLane="C3B3_1" arrivalPos="179.20" arrivalSpeed="10.60" duration="64.00" routeLength="756.11" waitingTime="1.00" waitingCount="1" stopTime="0.00" timeLoss="44.60" rerouteNo="0" devices="tripinfo_71" vType="DEFAULT_VEHTYPE" speedFactor="0.97" vaporized=""/>
    <tripinfo id="9" depart="5.00" departLane="C1C2_0" departPos="5.10" departSpeed="0.00" departDelay="0.50" arrival="101.00" arrivalLane="A0A1_1" arrivalPos="83.20" arrivalSpeed="17.24" duration="96.00" routeLength="759.55" waitingTime="19.00" waitingCount="2" stopTime="0.00" timeLoss="69.75" rerouteNo="0" devices="tripinfo_9" vType="DEFAULT_VEHTYPE" speedFactor="0.86" vaporized=""/>
    <tripinfo id="52" depart="32.00" departLane="A5B5_0" departPos="5.10" departSpeed="0.00" departDelay="6.00" arrival="102.00" arrivalLane="B4C4_1" arrivalPos="179.20" arrivalSpeed="25.52" duration="70.00" routeLength="464.89" waitingTime="28.00" waitingCount="1" stopTime="0.00" timeLoss="57.34" rerouteNo="0" devices="tripinfo_52" vType="DEFAULT_VEHTYPE" speedFactor="1.02" vaporized=""/>
    <tripinfo id="130" depart="69.00" departLane="C3B3_0" departPos="5.10" departSpeed="0.00" departDelay="4.00" arrival="102.00" arrivalLane="C3B3_0" arrivalPos="179.20" arrivalSpeed="8.26" duration="33.00" routeLength="174.10" waitingTime="8.00" waitingCount="1" stopTime="0.00" timeLoss="29.13" rerouteNo="0" devices="tripinfo_130" vType="DEFAULT_VEHTYPE" speedFactor="1.03" vaporized=""/>
    <tripinfo id="7" depart="4.00" departLane="B4C4_0" departPos="5.10" departSpeed="0.00" departDelay="0.50" arrival="104.00" arrivalLane="B3B4_0" arrivalPos="79.20" arrivalSpeed="18.43" duration="100.00" routeLength="538.79" waitingTime="36.00" waitingCount="3" stopTime="0.00" timeLoss="81.39" rerouteNo="0" devices="tripinfo_7" vType="DEFAULT_VEHTYPE" speedFactor="0.89" vaporized=""/>
    <tripinfo id="99" depart="51.00" departLane="C5C4_0" departPos="5.10" departSpeed="0.00" departDelay="1.50" arrival="106.00" arrivalLane="C2B2_0" arrivalPos="179.20" arrivalSpeed="9.91" duration="55.00" routeLength="466.33" waitingTime="4.00" waitingCount="1" stopTime="0.00" timeLoss="44.60" rerouteNo="0" devices="tripinfo_99" vType="DEFAULT_VEHTYPE" speedFactor="1.10" vaporized=""/>
    <tripinfo id="110" depart="55.00" departLane="C5B5_0" departPos="5.10" departSpeed="0.00" departDelay="0.00" arrival="106.00" arrivalLane="B4A4_0" arrivalPos="179.20" arrivalSpeed="12.36" duration="51.00" routeLength="464.89" waitingTime="5.00" waitingCount="1" stopTime="0.00" timeLoss="36.91" rerouteNo="0" devices="tripinfo_110" vType="DEFAULT_VEHTYPE" speedFactor="0.93" vaporized=""/>
    <tripinfo id="48" depart="32.00" departLane="C5C4_0" departPos="5.10" departSpeed="0.00" departDelay="8.00" arrival="107.00" arrivalLane="B3B2_1" arrivalPos="79.20" arrivalSpeed="18.28" duration="75.00" routeLength="464.89" waitingTime="18.00" waitingCount="2" stopTime="0.00" timeLoss="59.17" rerouteNo="0" devices="tripinfo_48" vType="DEFAULT_VEHTYPE" speedFactor="0.88" vaporized=""/>
    <tripinfo id="62" depart="37.00" departLane="A0A1_0" departPos="5.10" departSpeed="0.00" departDelay="6.00" arrival="108.00" arrivalLane="B0C0_1" arrivalPos="183.20" arrivalSpeed="22.77" duration="71.00" routeLength="557.11" waitingTime="17.00" waitingCount="1" stopTime="0.00" timeLoss="54.35" rerouteNo="0" devices="tripinfo_62" vType="DEFAULT_VEHTYPE" speedFactor="1.02" vaporized=""/>
    <tripinfo id="91" depart="46.00" departLane="C5B5_0" departPos="5.10" departSpeed="0.00" departDelay="0.50" arrival="108.00" arrivalLane="A2A1_0" arrivalPos="79.20" arrivalSpeed="5.12" duration="62.00" routeLength="783.36" waitingTime="6.00" waitingCount="1" stopTime="0.00" timeLoss="40.63" rerouteNo="0" devices="tripinfo_91" vType="DEFAULT_VEHTYPE" speedFactor="0.89" vaporized=""/>
    <tripinfo id="152" depart="76.00" departLane="A3A2_0" departPos="5.10" departSpeed="0.00" departDelay="0.00" arrival="110.00" arrivalLane="A2B2_1" arrivalPos="179.20" arrivalSpeed="24.09" duration="34.00" routeLength="272.66" waitingTime="1.00" waitingCount="1" stopTime="0.00" timeLoss="26.37" rerouteNo="0" devices="tripinfo_152" vType="DEFAULT_VEHTYPE" speedFactor="1.07" vaporized=""/>
    <tripinfo id="28" depart="14.00" departLane="A3B3_0" departPos="5.10" departSpeed="0.00" departDelay="0.00" arrival="111.00" arrivalLane="C0B0_1" arrivalPos="183.20" arrivalSpeed="16.04" duration="97.00" routeLength="862.43" waitingTime="34.00" waitingCount="1" stopTime="0.00" timeLoss="77.80" rerouteNo="0" devices="tripinfo_28" vType="DEFAULT_VEHTYPE" speedFactor="1.13" vaporized=""/>
    <tripinfo id="183" depart="92.00" departLane="A5B5_0" departPos="5.10" departSpeed="0.00" departDelay="0.50" arrival="111.00" arrivalLane="B5C5_0" arrivalPos="183.20" arrivalSpeed="37.18" duration="19.00" routeLength="382.10" waitingTime="0.00" waitingCount="0" stopTime="0.00" timeLoss="10.69" rerouteNo="0" devices="tripinfo_183" vType="DEFAULT_VEHTYPE" speedFactor="1.08" vaporized=""/>
    <tripinfo id="33" depart="17.00" departLane="A4B4_0" departPos="5.10" departSpeed="0.00" departDelay="0.50" arrival="113.00" arrivalLane="A0B0_0" arrivalPos="183.20" arrivalSpeed="10.19" duration="96.00" routeLength="949.21" waitingTime="4.00" waitingCount="2" stopTime="0.00" timeLoss="72.87" rerouteNo="0" devices="tripinfo_33" vType="DEFAULT_VEHTYPE" speedFactor="1.17" vaporized=""/>
    <tripinfo id="43" depart="26.00" departLane="C5C4_0" departPos="5.10" departSpeed="0.00" departDelay="4.50" arrival="113.00" arrivalLane="B3A3_0" arrivalPos="179.20" arrivalSpeed="7.41" duration="87.00" routeLength="566.33" waitingTime="22.00" waitingCount="2" stopTime="0.00" timeLoss="73.81" rerouteNo="0" devices="tripinfo_43" vType="DEFAULT_VEHTYPE" speedFactor="1.04" vaporized=""/>
    <tripinfo id="59" depart="33.00" departLane="B4B3_0" departPos="5.10" departSpeed="0.00" departDelay="3.50" arrival="114.00" arrivalLane="A3A4_1" arrivalPos="79.20" arrivalSpeed="18.82" duration="81.00" routeLength="355.72" waitingTime="41.00" waitingCount="2" stopTime="0.00" timeLoss="70.01" rerouteNo="0" devices="tripinfo_59" vType="DEFAULT_VEHTYPE" speedFactor="0.97" vaporized=""/>
    <tripinfo id="49" depart="25.00" departLane="C5B5_0" departPos="5.10" departSpeed="0.00" departDelay="0.50" arrival="115.00" arrivalLane="C3B3_0" arrivalPos="179.20" arrivalSpeed="9.53" duration="90.00" routeLength="751.68" waitingTime="11.00" waitingCount="1" stopTime="0.00" timeLoss="63.12" rerouteNo="0" devices="tripinfo_49" vType="DEFAULT_VEHTYPE" speedFactor="0.85" vaporized=""/>
    <tripinfo id="70" depart="35.00" departLane="B2C2_0" departPos="5.10" departSpeed="0.00" departDelay="0.00" arrival="116.00" arrivalLane="B3B4_0" arrivalPos="79.20" arrivalSpeed="14.55" duration="81.00" routeLength="559.44" waitingTime="16.00" waitingCount="2" stopTime="0.00" timeLoss="63.55" rerouteNo="0" devices="tripinfo_70" vType="DEFAULT_VEHTYPE" speedFactor="1.02" vaporized=""/>
    <tripinfo id="164" depart="82.00" departLane="C1C2_0" departPos="5.10" departSpeed="0.00" departDelay="0.00" arrival="116.00" arrivalLane="C3B3_1" arrivalPos="179.20" arrivalSpeed="24.90" duration="34.00" routeLength="372.66" waitingTime="0.00" waitingCount="0" stopTime="0.00" timeLoss="24.61" rerouteNo="0" devices="tripinfo_164" vType="DEFAULT_VEHTYPE" speedFactor="1.05" vaporized=""/>
    <tripinfo id="30" depart="15.00" departLane="C5C4_0" departPos="5.10" departSpeed="0.00" departDelay="0.00" arrival="118.00" arrivalLane="B4C4_0" arrivalPos="179.20" arrivalSpeed="26.64" duration="103.00" routeLength="642.79" waitingTime="38.00" waitingCount="2" stopTime="0.00" timeLoss="88.45" rerouteNo="0" devices="tripinfo_30" vType="DEFAULT_VEHTYPE" speedFactor="1.18" vaporized=""/>
    <tripinfo id="69" depart="39.00" departLane="C1B1_0" departPos="5.10" departSpeed="0.00" departDelay="4.50" arrival="118.00" arrivalLane="A2B2_0" arrivalPos="179.20" arrivalSpeed="30.12" duration="79.00" routeLength="650.56" waitingTime="18.00" waitingCount="2" stopTime="0.00" timeLoss="61.52" rerouteNo="0" devices="tripinfo_69" vType="DEFAULT_VEHTYPE" speedFactor="1.02" vaporized=""/>
    <tripinfo id="180" depart="90.00" departLane="C0B0_0" departPos="5.10" departSpeed="0.00" departDelay="0.00" arrival="120.00" arrivalLane="B0B1_1" arrivalPos="79.20" arrivalSpeed="12.87" duration="30.00" routeLength="266.33" waitingTime="0.00" waitingCount="0" stopTime="0.00" timeLoss="23.18" rerouteNo="0" devices="tripinfo_180" vType="DEFAULT_VEHTYPE" speedFactor="1.10" vaporized=""/>
    <tripinfo id="11" depart="6.00" departLane="B0C0_0" departPos="5.10" departSpeed="0.00" departDelay="0.50" arrival="127.00" arrivalLane="A3A4_1" arrivalPos="79.20" arrivalSpeed="7.00" duration="121.00" routeLength="966.15" waitingTime="18.00" waitingCount="3" stopTime="0.00" timeLoss="95.31" rerouteNo="0" devices="tripinfo_11" vType="DEFAULT_VEHTYPE" speedFactor="1.03" vaporized=""/>
    <tripinfo id="15" depart="9.00" departLane="C1C2_0" departPos="5.10" departSpeed="0.00" departDelay="1.50" arrival="127.00" arrivalLane="C0B0_1" arrivalPos="183.20" arrivalSpeed="26.44" duration="118.00" routeLength="852.95" waitingTime="34.00" waitingCount="3" stopTime="0.00" timeLoss="90.55" rerouteNo="0" devices="tripinfo_15" vType="DEFAULT_VEHTYPE" speedFactor="0.93" vaporized=""/>
    <tripinfo id="24" depart="12.00" departLane="B4C4_0" departPos="5.10" departSpeed="0.00" departDelay="0.00" arrival="127.00" arrivalLane="B1A1_0" arrivalPos="179.20" arrivalSpeed="12.22" duration="115.00" routeLength="850.56" waitingTime="33.00" waitingCount="4" stopTime="0.00" timeLoss="89.26" rerouteNo="0" devices="tripinfo_24" vType="DEFAULT_VEHTYPE" speedFactor="0.83" vaporized=""/>
    <tripinfo id="66" depart="35.00" departLane="C3B3_0" departPos="5.10" departSpeed="0.00" departDelay="2.00" arrival="127.00" arrivalLane="C4C3_1" arrivalPos="79.20" arrivalSpeed="5.90" duration="92.00" routeLength="538.79" waitingTime="34.00" waitingCount="1" stopTime="0.00" timeLoss="74.76" rerouteNo="0" devices="tripinfo_66" vType="DEFAULT_VEHTYPE" speedFactor="0.91" vaporized=""/>
    <tripinfo id="190" depart="100.00" departLane="C0B0_0" departPos="5.10" departSpeed="0.00" departDelay="5.00" arrival="127.00" arrivalLane="B0A0_1" arrivalPos="183.20" arrivalSpeed="7.86" duration="27.00" routeLength="382.10" waitingTime="0.00" waitingCount="0" stopTime="0.00" timeLoss="17.29" rerouteNo="0" devices="tripinfo_190" vType="DEFAULT_VEHTYPE" speedFactor="0.90" vaporized=""/>
    <tripinfo id="27" depart="15.00" departLane="B4C4_0" departPos="5.10" departSpeed="0.00" departDelay="1.50" arrival="129.00" arrivalLane="B4B3_0" arrivalPos="79.20" arrivalSpeed="6.87" duration="114.00" routeLength="671.31" waitingTime="49.00" waitingCount="2" stopTime="0.00" timeLoss="94.44" rerouteNo="0" devices="tripinfo_27" vType="DEFAULT_VEHTYPE" speedFactor="0.95" vaporized=""/>
    <tripinfo id="75" depart="48.00" departLane="C5C4_0" departPos="5.10" departSpeed="0.00" departDelay="10.50" arrival="129.00" arrivalLane="B4C4_1" arrivalPos="179.20" arrivalSpeed="8.91" duration="81.00" routeLength="642.79" waitingTime="7.00" waitingCount="1" stopTime="0.00" timeLoss="62.84" rerouteNo="0" devices="tripinfo_75" vType="DEFAULT_VEHTYPE" speedFactor="0.98" vaporized=""/>
    <tripinfo id="138" depart="69.00" departLane="A2A3_0" departPos="5.10" departSpeed="0.00" departDelay="0.00" arrival="130.00" arrivalLane="B3C3_0" arrivalPos="179.20" arrivalSpeed="7.67" duration="61.00" routeLength="462.33" waitingTime="20.00" waitingCount="1" stopTime="0.00" timeLoss="49.64" rerouteNo="0" devices="tripinfo_138" vType="DEFAULT_VEHTYPE" speedFactor="1.00" vaporized=""/>
    <tripinfo id="1" depart="1.00" departLane="A5B5_0" departPos="5.10" departSpeed="0.00" departDelay="0.50" arrival="132.00" arrivalLane="A4B4_1" arrivalPos="179.20" arrivalSpeed="10.39" duration="131.00" routeLength="831.02" waitingTime="50.00" waitingCount="2" stopTime="0.00" timeLoss="106.00" rerouteNo="0" devices="tripinfo_1" vType="DEFAULT_VEHTYPE" speedFactor="0.94" vaporized=""/>
    <tripinfo id="17" depart="9.00" departLane="B1B0_0" departPos="5.10" departSpeed="0.00" departDelay="0.50" arrival="135.00" arrivalLane="B3C3_0" arrivalPos="179.20" arrivalSpeed="7.15" duration="126.00" routeLength="940.34" waitingTime="33.00" waitingCount="3" stopTime="0.00" timeLoss="100.72" rerouteNo="0" devices="tripinfo_17" vType="DEFAULT_VEHTYPE" speedFactor="0.94" vaporized=""/>
    <tripinfo id="125" depart="64.00" departLane="B0B1_0" departPos="5.10" departSpeed="0.00" departDelay="1.50" arrival="135.00" arrivalLane="C0C1_0" arrivalPos="83.20" arrivalSpeed="18.62" duration="71.00" routeLength="881.73" waitingTime="1.00" waitingCount="1" stopTime="0.00" timeLoss="47.41" rerouteNo="0" devices="tripinfo_125" vType="DEFAULT_VEHTYPE" speedFactor="1.15" vaporized=""/>
    <tripinfo id="54" depart="27.00" departLane="B2B1_0" departPos="5.10" departSpeed="0.00" departDelay="0.00" arrival="136.00" arrivalLane="C4C5_0" arrivalPos="83.20" arrivalSpeed="10.50" duration="109.00" routeLength="675.21" waitingTime="42.00" waitingCount="2" stopTime="0.00" timeLoss="90.59" rerouteNo="0" devices="tripinfo_54" vType="DEFAULT_VEHTYPE" speedFactor="1.00" vaporized=""/>
    <tripinfo id="192" depart="96.00" departLane="B1C1_0" departPos="5.10" departSpeed="0.00" departDelay="0.00" arrival="137.00" arrivalLane="B0A0_1" arrivalPos="183.20" arrivalSpeed="40.73" duration="41.00" routeLength="666.43" waitingTime="0.00" waitingCount="0" stopTime="0.00" timeLoss="24.86" rerouteNo="0" devices="tripinfo_192" vType="DEFAULT_VEHTYPE" speedFactor="1.10" vaporized=""/>
    <tripinfo id="245" depart="123.00" departLane="A4B4_0" departPos="5.10" departSpeed="0.00" departDelay="0.50" arrival="137.00" arrivalLane="A4B4_0" arrivalPos="179.20" arrivalSpeed="21.94" duration="14.00" routeLength="174.10" waitingTime="0.00" waitingCount="0" stopTime="0.00" timeLoss="9.80" rerouteNo="0" devices="tripinfo_245" vType="DEFAULT_VEHTYPE" speedFactor="1.01" vaporized=""/>
    <tripinfo id="77" depart="39.00" departLane="A2B2_0" departPos="5.10" departSpeed="0.00" departDelay="0.50" arrival="139.00" arrivalLane="A4B4_0" arrivalPos="179.20" arrivalSpeed="23.45" duration="100.00" routeLength="747.68" waitingTime="29.00" waitingCount="2" stopTime="0.00" timeLoss="76.39" rerouteNo="0" devices="tripinfo_77" vType="DEFAULT_VEHTYPE" speedFactor="0.98" vaporized=""/>
    <tripinfo id="67" depart="38.00" departLane="A1B1_0" departPos="5.10" departSpeed="0.00" departDelay="4.50" arrival="140.00" arrivalLane="B2C2_0" arrivalPos="179.20" arrivalSpeed="21.75" duration="102.00" routeLength="460.89" waitingTime="52.00" waitingCount="3" stopTime="0.00" timeLoss="86.82" rerouteNo="0" devices="tripinfo_67" vType="DEFAULT_VEHTYPE" speedFactor="0.91" vaporized=""/>
    <tripinfo id="83" depart="46.00" departLane="A4B4_0" departPos="5.10" departSpeed="0.00" departDelay="4.50" arrival="141.00" arrivalLane="B5A5_1" arrivalPos="183.20" arrivalSpeed="16.91" duration="95.00" routeLength="475.21" waitingTime="45.00" waitingCount="3" stopTime="0.00" timeLoss="80.54" rerouteNo="0" devices="tripinfo_83" vType="DEFAULT_VEHTYPE" speedFactor="0.97" vaporized=""/>
    <tripinfo id="94" depart="47.00" departLane="A3B3_0" departPos="5.10" departSpeed="0.00" departDelay="0.00" arrival="141.00" arrivalLane="B2A2_0" arrivalPos="179.20" arrivalSpeed="14.09" duration="94.00" routeLength="450.56" waitingTime="51.00" waitingCount="2" stopTime="0.00" timeLoss="82.18" rerouteNo="0" devices="tripinfo_94" vType="DEFAULT_VEHTYPE" speedFactor="1.09" vaporized=""/>
    <tripinfo id="129" depart="65.00" departLane="A5B5_0" departPos="5.10" departSpeed="0.00" departDelay="0.50" arrival="142.00" arrivalLane="C4B4_0" arrivalPos="179.20" arrivalSpeed="26.53" duration="77.00" routeLength="656.11" waitingTime="24.00" waitingCount="1" stopTime="0.00" timeLoss="60.38" rerouteNo="0" devices="tripinfo_129" vType="DEFAULT_VEHTYPE" speedFactor="1.01" vaporized=""/>
    <tripinfo id="139" depart="70.00" departLane="A5B5_0" departPos="5.10" departSpeed="0.00" departDelay="0.50" arrival="142.00" arrivalLane="B4B3_0" arrivalPos="79.20" arrivalSpeed="9.44" duration="72.00" routeLength="366.33" waitingTime="25.00" waitingCount="2" stopTime="0.00" timeLoss="61.58" rerouteNo="0" devices="tripinfo_139" vType="DEFAULT_VEHTYPE" speedFactor="0.95" vaporized=""/>
    <tripinfo id="185" depart="101.00" departLane="B3B4_0" departPos="5.10" departSpeed="0.00" departDelay="8.50" arrival="142.00" arrivalLane="B5C5_0" arrivalPos="183.20" arrivalSpeed="15.44" duration="41.00" routeLength="366.33" waitingTime="3.00" waitingCount="1" stopTime="0.00" timeLoss="30.08" rerouteNo="0" devices="tripinfo_185" vType="DEFAULT_VEHTYPE" speedFactor="0.92" vaporized=""/>
    <tripinfo id="42" depart="21.00" departLane="B1C1_0" departPos="5.10" departSpeed="0.00" departDelay="0.00" arrival="143.00" arrivalLane="A4B4_0" arrivalPos="179.20" arrivalSpeed="29.35" duration="122.00" routeLength="1047.67" waitingTime="24.00" waitingCount="3" stopTime="0.00" timeLoss="94.66" rerouteNo="0" devices="tripinfo_42" vType="DEFAULT_VEHTYPE" speedFactor="1.09" vaporized=""/>
    <tripinfo id="53" depart="27.00" departLane="A2A3_0" departPos="5.10" departSpeed="0.00" departDelay="0.50" arrival="143.00" arrivalLane="B2A2_0" arrivalPos="179.20" arrivalSpeed="12.39" duration="116.00" routeLength="538.79" waitingTime="59.00" waitingCount="3" stopTime="0.00" timeLoss="102.06" rerouteNo="0" devices="tripinfo_53" vType="DEFAULT_VEHTYPE" speedFactor="1.10" vaporized=""/>
    <tripinfo id="10" depart="6.00" departLane="C1C2_0" departPos="5.10" departSpeed="0.00" departDelay="1.00" arrival="145.00" arrivalLane="B5C5_1" arrivalPos="183.20" arrivalSpeed="27.35" duration="139.00" routeLength="758.28" waitingTime="64.00" waitingCount="4" stopTime="0.00" timeLoss="119.11" rerouteNo="0" devices="tripinfo_10" vType="DEFAULT_VEHTYPE" speedFactor="1.09" vaporized=""/>
    <tripinfo id="45" depart="23.00" departLane="A2A3_0" departPos="5.10" departSpeed="0.00" departDelay="0.50" arrival="146.00" arrivalLane="B4C4_1" arrivalPos="179.20" arrivalSpeed="6.46" duration="123.00" routeLength="562.33" waitingTime="64.00" waitingCount="2" stopTime="0.00" timeLoss="109.56" rerouteNo="0" devices="tripinfo_45" vType="DEFAULT_VEHTYPE" speedFactor="1.09" vaporized=""/>
    <tripinfo id="159" depart="80.00" departLane="A3A4_0" departPos="5.10" departSpeed="0.00" departDelay="0.50" arrival="146.00" arrivalLane="C4B4_0" arrivalPos="179.20" arrivalSpeed="27.64" duration="66.00" routeLength="847.05" waitingTime="7.00" waitingCount="1" stopTime="0.00" timeLoss="46.78" rerouteNo="0" devices="tripinfo_159" vType="DEFAULT_VEHTYPE" speedFactor="1.14" vaporized=""/>
    <tripinfo id="214" depart="107.00" departLane="C0C1_0" departPos="5.10" departSpeed="0.00" departDelay="0.00" arrival="146.00" arrivalLane="C1B1_0" arrivalPos="179.20" arrivalSpeed="10.72" duration="39.00" routeLength="276.66" waitingTime="5.00" waitingCount="1" stopTime="0.00" timeLoss="29.09" rerouteNo="0" devices="tripinfo_214" vType="DEFAULT_VEHTYPE" speedFactor="0.83" vaporized=""/>