<?xml version="1.0" encoding="UTF-8"?>

<!-- generated on 2021-06-13 02:16:28 by Eclipse SUMO GUI Version 1.9.2
<configuration xmlns:xsi="http://www.w3.org/2001/XMLSchema-instance" xsi:noNamespaceSchemaLocation="http://sumo.dlr.de/xsd/sumoConfiguration.xsd">

    <input>
        <net-file value="grid.net.xml"/>
        <route-files value="grid.rou.xml"/>
        <additional-files value="grid.add.xml"/>
    </input>

    <output>
        <tripinfo-output value="tripinfo.xml"/>
    </output>

    <traci_server>
        <remote-port value="46473"/>
    </traci_server>

</configuration>
-->

<tripinfos xmlns:xsi="http://www.w3.org/2001/XMLSchema-instance" xsi:noNamespaceSchemaLocation="http://sumo.dlr.de/xsd/tripinfo_file.xsd">
    <tripinfo id="13" depart="7.00" departLane="A2A1_0" departPos="5.10" departSpeed="0.00" departDelay="0.50" arrival="16.00" arrivalLane="A2A1_0" arrivalPos="79.20" arrivalSpeed="15.92" duration="9.00" routeLength="74.10" waitingTime="0.00" waitingCount="0" stopTime="0.00" timeLoss="7.40" rerouteNo="0" devices="tripinfo_13" vType="DEFAULT_VEHTYPE" speedFactor="1.12" vaporized=""/>
    <tripinfo id="44" depart="22.00" departLane="A2A1_0" departPos="5.10" departSpeed="0.00" departDelay="0.00" arrival="36.00" arrivalLane="A1A0_0" arrivalPos="83.20" arrivalSpeed="26.66" duration="14.00" routeLength="178.10" waitingTime="0.00" waitingCount="0" stopTime="0.00" timeLoss="9.92" rerouteNo="0" devices="tripinfo_44" vType="DEFAULT_VEHTYPE" speedFactor="1.04" vaporized=""/>
    <tripinfo id="32" depart="16.00" departLane="C2C1_0" departPos="5.10" departSpeed="0.00" departDelay="0.00" arrival="42.00" arrivalLane="C1B1_0" arrivalPos="179.20" arrivalSpeed="27.23" duration="26.00" routeLength="262.33" waitingTime="2.00" waitingCount="1" stopTime="0.00" timeLoss="18.93" rerouteNo="0" devices="tripinfo_32" vType="DEFAULT_VEHTYPE" speedFactor="1.01" vaporized=""/>
    <tripinfo id="79" depart="40.00" departLane="A4B4_0" departPos="5.10" departSpeed="0.00" departDelay="0.50" arrival="53.00" arrivalLane="A4B4_1" arrivalPos="179.20" arrivalSpeed="25.97" duration="13.00" routeLength="174.10" waitingTime="0.00" waitingCount="0" stopTime="0.00" timeLoss="9.11" rerouteNo="0" devices="tripinfo_79" vType="DEFAULT_VEHTYPE" speedFactor="1.09" vaporized=""/>
    <tripinfo id="3" depart="2.00" departLane="C3C2_0" departPos="5.10" departSpeed="0.00" departDelay="0.50" arrival="60.00" arrivalLane="A1B1_1" arrivalPos="179.20" arrivalSpeed="9.30" duration="58.00" routeLength="759.44" waitingTime="1.00" waitingCount="1" stopTime="0.00" timeLoss="38.35" rerouteNo="0" devices="tripinfo_3" vType="DEFAULT_VEHTYPE" speedFactor="1.08" vaporized=""/>
    <tripinfo id="19" depart="10.00" departLane="C3B3_0" departPos="5.10" departSpeed="0.00" departDelay="0.50" arrival="69.00" arrivalLane="B4A4_1" arrivalPos="179.20" arrivalSpeed="27.29" duration="59.00" routeLength="460.89" waitingTime="11.00" waitingCount="3" stopTime="0.00" timeLoss="47.31" rerouteNo="0" devices="tripinfo_19" vType="DEFAULT_VEHTYPE" speedFactor="1.16" vaporized=""/>
    <tripinfo id="28" depart="14.00" departLane="A3B3_0" departPos="5.10" departSpeed="0.00" departDelay="0.00" arrival="69.00" arrivalLane="C0B0_1" arrivalPos="183.20" arrivalSpeed="29.03" duration="55.00" routeLength="862.43" waitingTime="0.00" waitingCount="0" stopTime="0.00" timeLoss="35.58" rerouteNo="0" devices="tripinfo_28" vType="DEFAULT_VEHTYPE" speedFactor="1.13" vaporized=""/>
    <tripinfo id="127" depart="64.00" departLane="C5C4_0" departPos="5.10" departSpeed="0.00" departDelay="0.50" arrival="73.00" arrivalLane="C5C4_1" arrivalPos="83.20" arrivalSpeed="17.01" duration="9.00" routeLength="78.10" waitingTime="0.00" waitingCount="0" stopTime="0.00" timeLoss="6.52" rerouteNo="0" devices="tripinfo_127" vType="DEFAULT_VEHTYPE" speedFactor="0.82" vaporized=""/>
    <tripinfo id="26" depart="13.00" departLane="A5B5_0" departPos="5.10" departSpeed="0.00" departDelay="0.00" arrival="76.00" arrivalLane="C4C3_1" arrivalPos="79.20" arrivalSpeed="20.39" duration="63.00" routeLength="573.04" waitingTime="19.00" waitingCount="1" stopTime="0.00" timeLoss="47.62" rerouteNo="0" devices="tripinfo_26" vType="DEFAULT_VEHTYPE" speedFactor="0.92" vaporized=""/>
    <tripinfo id="35" depart="18.00" departLane="A4A5_0" departPos="5.10" departSpeed="0.00" departDelay="0.50" arrival="78.00" arrivalLane="C4C3_1" arrivalPos="79.20" arrivalSpeed="21.45" duration="60.00" routeLength="658.82" waitingTime="6.00" waitingCount="1" stopTime="0.00" timeLoss="44.24" rerouteNo="0" devices="tripinfo_35" vType="DEFAULT_VEHTYPE" speedFactor="1.02" vaporized=""/>
    <tripinfo id="137" depart="69.00" departLane="A2B2_0" departPos="5.10" departSpeed="0.00" departDelay="0.50" arrival="82.00" arrivalLane="A2B2_0" arrivalPos="179.20" arrivalSpeed="26.24" duration="13.00" routeLength="174.10" waitingTime="0.00" waitingCount="0" stopTime="0.00" timeLoss="8.93" rerouteNo="0" devices="tripinfo_137" vType="DEFAULT_VEHTYPE" speedFactor="1.02" vaporized=""/>
    <tripinfo id="51" depart="26.00" departLane="B5B4_0" departPos="5.10" departSpeed="0.00" departDelay="0.50" arrival="89.00" arrivalLane="B3B2_1" arrivalPos="79.20" arrivalSpeed="4.62" duration="63.00" routeLength="274.10" waitingTime="22.00" waitingCount="3" stopTime="0.00" timeLoss="57.67" rerouteNo="0" devices="tripinfo_51" vType="DEFAULT_VEHTYPE" speedFactor="1.17" vaporized=""/>
    <tripinfo id="60" depart="33.00" departLane="C1B1_0" departPos="5.10" departSpeed="0.00" departDelay="3.00" arrival="89.00" arrivalLane="B3B4_1" arrivalPos="79.20" arrivalSpeed="6.13" duration="56.00" routeLength="462.33" waitingTime="5.00" waitingCount="2" stopTime="0.00" timeLoss="45.44" rerouteNo="0" devices="tripinfo_60" vType="DEFAULT_VEHTYPE" speedFactor="1.08" vaporized=""/>
    <tripinfo id="55" depart="28.00" departLane="C3B3_0" departPos="5.10" departSpeed="0.00" departDelay="0.50" arrival="90.00" arrivalLane="A5B5_1" arrivalPos="183.20" arrivalSpeed="26.98" duration="62.00" routeLength="762.43" waitingTime="3.00" waitingCount="1" stopTime="0.00" timeLoss="42.09" rerouteNo="0" devices="tripinfo_55" vType="DEFAULT_VEHTYPE" speedFactor="1.00" vaporized=""/>
    <tripinfo id="122" depart="61.00" departLane="A4A5_0" departPos="5.10" departSpeed="0.00" departDelay="0.00" arrival="94.00" arrivalLane="B5C5_1" arrivalPos="183.20" arrivalSpeed="12.06" duration="33.00" routeLength="467.88" waitingTime="0.00" waitingCount="0" stopTime="0.00" timeLoss="22.58" rerouteNo="0" devices="tripinfo_122" vType="DEFAULT_VEHTYPE" speedFactor="1.03" vaporized=""/>
    <tripinfo id="47" depart="24.00" departLane="A1A2_0" departPos="5.10" departSpeed="0.00" departDelay="0.50" arrival="95.00" arrivalLane="B1B0_0" arrivalPos="79.20" arrivalSpeed="13.36" duration="71.00" routeLength="450.56" waitingTime="25.00" waitingCount="2" stopTime="0.00" timeLoss="57.04" rerouteNo="0" devices="tripinfo_47" vType="DEFAULT_VEHTYPE" speedFactor="0.90" vaporized=""/>
    <tripinfo id="65" depart="33.00" departLane="B0A0_0" departPos="5.10" departSpeed="0.00" departDelay="0.50" arrival="95.00" arrivalLane="A1A2_1" arrivalPos="79.20" arrivalSpeed="19.33" duration="62.00" routeLength="363.88" waitingTime="26.00" waitingCount="1" stopTime="0.00" timeLoss="51.74" rerouteNo="0" devices="tripinfo_65" vType="DEFAULT_VEHTYPE" speedFactor="0.88" vaporized=""/>
    <tripinfo id="27" depart="17.00" departLane="B4C4_0" departPos="5.10" departSpeed="0.00" departDelay="3.50" arrival="96.00" arrivalLane="B4B3_0" arrivalPos="79.20" arrivalSpeed="20.98" duration="79.00" routeLength="671.31" waitingTime="19.00" waitingCount="1" stopTime="0.00" timeLoss="58.24" rerouteNo="0" devices="tripinfo_27" vType="DEFAULT_VEHTYPE" speedFactor="0.95" vaporized=""/>
    <tripinfo id="31" depart="16.00" departLane="B3C3_0" departPos="5.10" departSpeed="0.00" departDelay="0.50" arrival="98.00" arrivalLane="B5B4_1" arrivalPos="79.20" arrivalSpeed="19.17" duration="82.00" routeLength="671.31" waitingTime="26.00" waitingCount="1" stopTime="0.00" timeLoss="64.76" rerouteNo="0" devices="tripinfo_31" vType="DEFAULT_VEHTYPE" speedFactor="1.15" vaporized=""/>
    <tripinfo id="91" depart="46.00" departLane="C5B5_0" departPos="5.10" departSpeed="0.00" departDelay="0.50" arrival="98.00" arrivalLane="A2A1_0" arrivalPos="79.20" arrivalSpeed="16.72" duration="52.00" routeLength="778.20" waitingTime="0.00" waitingCount="0" stopTime="0.00" timeLoss="30.38" rerouteNo="0" devices="tripinfo_91" vType="DEFAULT_VEHTYPE" speedFactor="0.89" vaporized=""/>
    <tripinfo id="67" depart="39.00" departLane="A1B1_0" departPos="5.10" departSpeed="0.00" departDelay="5.50" arrival="100.00" arrivalLane="B2C2_0" arrivalPos="179.20" arrivalSpeed="28.54" duration="61.00" routeLength="460.89" waitingTime="20.00" waitingCount="1" stopTime="0.00" timeLoss="45.88" rerouteNo="0" devices="tripinfo_67" vType="DEFAULT_VEHTYPE" speedFactor="0.91" vaporized=""/>
    <tripinfo id="46" depart="23.00" departLane="C1C0_0" departPos="5.10" departSpeed="0.00" departDelay="0.00" arrival="102.00" arrivalLane="B1C1_0" arrivalPos="179.20" arrivalSpeed="26.12" duration="79.00" routeLength="540.34" waitingTime="28.00" waitingCount="1" stopTime="0.00" timeLoss="63.41" rerouteNo="0" devices="tripinfo_46" vType="DEFAULT_VEHTYPE" speedFactor="1.00" vaporized=""/>
    <tripinfo id="38" depart="19.00" departLane="C4B4_0" departPos="5.10" departSpeed="0.00" departDelay="0.00" arrival="105.00" arrivalLane="B2B1_0" arrivalPos="79.20" arrivalSpeed="7.30" duration="86.00" routeLength="472.66" waitingTime="32.00" waitingCount="3" stopTime="0.00" timeLoss="75.09" rerouteNo="0" devices="tripinfo_38" vType="DEFAULT_VEHTYPE" speedFactor="1.10" vaporized=""/>
    <tripinfo id="52" depart="32.00" departLane="A5B5_0" departPos="5.10" departSpeed="0.00" departDelay="6.00" arrival="106.00" arrivalLane="B4C4_1" arrivalPos="179.20" arrivalSpeed="26.89" duration="74.00" routeLength="464.89" waitingTime="28.00" waitingCount="2" stopTime="0.00" timeLoss="60.73" rerouteNo="0" devices="tripinfo_52" vType="DEFAULT_VEHTYPE" speedFactor="1.02" vaporized=""/>
    <tripinfo id="69" depart="39.00" departLane="C1B1_0" departPos="5.10" departSpeed="0.00" departDelay="4.50" arrival="107.00" arrivalLane="A2B2_0" arrivalPos="179.20" arrivalSpeed="26.49" duration="68.00" routeLength="650.56" waitingTime="8.00" waitingCount="2" stopTime="0.00" timeLoss="51.06" rerouteNo="0" devices="tripinfo_69" vType="DEFAULT_VEHTYPE" speedFactor="1.02" vaporized=""/>
    <tripinfo id="110" depart="55.00" departLane="C5B5_0" departPos="5.10" departSpeed="0.00" departDelay="0.00" arrival="107.00" arrivalLane="B4A4_0" arrivalPos="179.20" arrivalSpeed="16.06" duration="52.00" routeLength="464.89" waitingTime="6.00" waitingCount="1" stopTime="0.00" timeLoss="37.40" rerouteNo="0" devices="tripinfo_110" vType="DEFAULT_VEHTYPE" speedFactor="0.93" vaporized=""/>
    <tripinfo id="152" depart="76.00" departLane="A3A2_0" departPos="5.10" departSpeed="0.00" departDelay="0.00" arrival="107.00" arrivalLane="A2B2_1" arrivalPos="179.20" arrivalSpeed="26.92" duration="31.00" routeLength="272.66" waitingTime="2.00" waitingCount="1" stopTime="0.00" timeLoss="23.44" rerouteNo="0" devices="tripinfo_152" vType="DEFAULT_VEHTYPE" speedFactor="1.07" vaporized=""/>
    <tripinfo id="5" depart="3.00" departLane="A4B4_0" departPos="5.10" departSpeed="0.00" departDelay="0.50" arrival="108.00" arrivalLane="B3A3_0" arrivalPos="179.20" arrivalSpeed="5.10" duration="105.00" routeLength="450.56" waitingTime="55.00" waitingCount="2" stopTime="0.00" timeLoss="90.24" rerouteNo="0" devices="tripinfo_5" vType="DEFAULT_VEHTYPE" speedFactor="0.83" vaporized=""/>
    <tripinfo id="18" depart="9.00" departLane="C2B2_0" departPos="5.10" departSpeed="0.00" departDelay="0.00" arrival="108.00" arrivalLane="B4B5_0" arrivalPos="79.20" arrivalSpeed="4.52" duration="99.00" routeLength="462.33" waitingTime="44.00" waitingCount="3" stopTime="0.00" timeLoss="87.07" rerouteNo="0" devices="tripinfo_18" vType="DEFAULT_VEHTYPE" speedFactor="0.94" vaporized=""/>
    <tripinfo id="66" depart="35.00" departLane="C3B3_0" departPos="5.10" departSpeed="0.00" departDelay="2.00" arrival="109.00" arrivalLane="C4C3_1" arrivalPos="79.20" arrivalSpeed="17.70" duration="74.00" routeLength="543.95" waitingTime="24.00" waitingCount="1" stopTime="0.00" timeLoss="57.01" rerouteNo="0" devices="tripinfo_66" vType="DEFAULT_VEHTYPE" speedFactor="0.91" vaporized=""/>
    <tripinfo id="50" depart="25.00" departLane="A0A1_0" departPos="5.10" departSpeed="0.00" departDelay="0.00" arrival="110.00" arrivalLane="C0B0_1" arrivalPos="183.20" arrivalSpeed="27.08" duration="85.00" routeLength="749.50" waitingTime="27.00" waitingCount="1" stopTime="0.00" timeLoss="62.41" rerouteNo="0" devices="tripinfo_50" vType="DEFAULT_VEHTYPE" speedFactor="0.85" vaporized=""/>
    <tripinfo id="85" depart="43.00" departLane="C4B4_0" departPos="5.10" departSpeed="0.00" departDelay="0.50" arrival="111.00" arrivalLane="B3C3_0" arrivalPos="179.20" arrivalSpeed="8.71" duration="68.00" routeLength="471.22" waitingTime="14.00" waitingCount="2" stopTime="0.00" timeLoss="53.96" rerouteNo="0" devices="tripinfo_85" vType="DEFAULT_VEHTYPE" speedFactor="0.98" vaporized=""/>
    <tripinfo id="88" depart="44.00" departLane="A2A1_0" departPos="5.10" departSpeed="0.00" departDelay="0.00" arrival="111.00" arrivalLane="B2A2_1" arrivalPos="179.20" arrivalSpeed="20.45" duration="67.00" routeLength="569.78" waitingTime="8.00" waitingCount="2" stopTime="0.00" timeLoss="48.63" rerouteNo="0" devices="tripinfo_88" vType="DEFAULT_VEHTYPE" speedFactor="1.01" vaporized=""/>
    <tripinfo id="130" depart="65.00" departLane="C3B3_0" departPos="5.10" departSpeed="0.00" departDelay="0.00" arrival="114.00" arrivalLane="C3B3_0" arrivalPos="179.20" arrivalSpeed="7.95" duration="49.00" routeLength="174.10" waitingTime="26.00" waitingCount="1" stopTime="0.00" timeLoss="45.04" rerouteNo="0" devices="tripinfo_130" vType="DEFAULT_VEHTYPE" speedFactor="1.03" vaporized=""/>
    <tripinfo id="180" depart="90.00" departLane="C0B0_0" departPos="5.10" departSpeed="0.00" departDelay="0.00" arrival="114.00" arrivalLane="B0B1_0" arrivalPos="79.20" arrivalSpeed="18.90" duration="24.00" routeLength="266.33" waitingTime="0.00" waitingCount="0" stopTime="0.00" timeLoss="17.36" rerouteNo="0" devices="tripinfo_180" vType="DEFAULT_VEHTYPE" speedFactor="1.10" vaporized=""/>
    <tripinfo id="17" depart="9.00" departLane="B1B0_0" departPos="5.10" departSpeed="0.00" departDelay="0.50" arrival="121.00" arrivalLane="B3C3_1" arrivalPos="179.20" arrivalSpeed="27.27" duration="112.00" routeLength="940.34" waitingTime="28.00" waitingCount="2" stopTime="0.00" timeLoss="86.51" rerouteNo="0" devices="tripinfo_17" vType="DEFAULT_VEHTYPE" speedFactor="0.94" vaporized=""/>
    <tripinfo id="83" depart="46.00" departLane="A4B4_0" departPos="5.10" departSpeed="0.00" departDelay="4.50" arrival="121.00" arrivalLane="B5A5_0" arrivalPos="183.20" arrivalSpeed="12.01" duration="75.00" routeLength="475.21" waitingTime="29.00" waitingCount="2" stopTime="0.00" timeLoss="60.71" rerouteNo="0" devices="tripinfo_83" vType="DEFAULT_VEHTYPE" speedFactor="0.97" vaporized=""/>
    <tripinfo id="94" depart="47.00" departLane="A3B3_0" departPos="5.10" departSpeed="0.00" departDelay="0.00" arrival="126.00" arrivalLane="B2A2_0" arrivalPos="179.20" arrivalSpeed="28.41" duration="79.00" routeLength="450.56" waitingTime="42.00" waitingCount="1" stopTime="0.00" timeLoss="67.66" rerouteNo="0" devices="tripinfo_94" vType="DEFAULT_VEHTYPE" speedFactor="1.09" vaporized=""/>
    <tripinfo id="7" depart="4.00" departLane="B4C4_0" departPos="5.10" departSpeed="0.00" departDelay="0.50" arrival="127.00" arrivalLane="B3B4_0" arrivalPos="79.20" arrivalSpeed="4.51" duration="123.00" routeLength="538.79" waitingTime="57.00" waitingCount="4" stopTime="0.00" timeLoss="104.79" rerouteNo="0" devices="tripinfo_7" vType="DEFAULT_VEHTYPE" speedFactor="0.89" vaporized=""/>
    <tripinfo id="59" depart="35.00" departLane="B4B3_0" departPos="5.10" departSpeed="0.00" departDelay="5.50" arrival="127.00" arrivalLane="A3A4_1" arrivalPos="79.20" arrivalSpeed="5.08" duration="92.00" routeLength="355.72" waitingTime="47.00" waitingCount="3" stopTime="0.00" timeLoss="81.47" rerouteNo="0" devices="tripinfo_59" vType="DEFAULT_VEHTYPE" speedFactor="0.97" vaporized=""/>
    <tripinfo id="106" depart="53.00" departLane="B2B1_0" departPos="5.10" departSpeed="0.00" departDelay="0.00" arrival="127.00" arrivalLane="B1C1_0" arrivalPos="179.20" arrivalSpeed="12.30" duration="74.00" routeLength="272.66" waitingTime="38.00" waitingCount="3" stopTime="0.00" timeLoss="66.69" rerouteNo="0" devices="tripinfo_106" vType="DEFAULT_VEHTYPE" speedFactor="1.01" vaporized=""/>
    <tripinfo id="142" depart="71.00" departLane="B2C2_0" departPos="5.10" departSpeed="0.00" departDelay="0.00" arrival="127.00" arrivalLane="C3C4_0" arrivalPos="79.20" arrivalSpeed="5.13" duration="56.00" routeLength="372.65" waitingTime="18.00" waitingCount="1" stopTime="0.00" timeLoss="45.38" rerouteNo="0" devices="tripinfo_142" vType="DEFAULT_VEHTYPE" speedFactor="0.94" vaporized=""/>
    <tripinfo id="29" depart="15.00" departLane="A3A4_0" departPos="5.10" departSpeed="0.00" departDelay="0.50" arrival="129.00" arrivalLane="B1B0_1" arrivalPos="79.20" arrivalSpeed="6.43" duration="114.00" routeLength="650.56" waitingTime="36.00" waitingCount="4" stopTime="0.00" timeLoss="96.37" rerouteNo="0" devices="tripinfo_29" vType="DEFAULT_VEHTYPE" speedFactor="0.93" vaporized=""/>
    <tripinfo id="0" depart="0.00" departLane="B4C4_0" departPos="5.10" departSpeed="0.00" departDelay="0.00" arrival="130.00" arrivalLane="A0B0_0" arrivalPos="183.20" arrivalSpeed="11.14" duration="130.00" routeLength="1149.21" waitingTime="29.00" waitingCount="4" stopTime="0.00" timeLoss="101.21" rerouteNo="0" devices="tripinfo_0" vType="DEFAULT_VEHTYPE" speedFactor="1.06" vaporized=""/>
    <tripinfo id="81" depart="43.00" departLane="A4B4_0" departPos="5.10" departSpeed="0.00" departDelay="2.50" arrival="132.00" arrivalLane="C3C4_0" arrivalPos="79.20" arrivalSpeed="9.70" duration="89.00" routeLength="559.44" waitingTime="20.00" waitingCount="3" stopTime="0.00" timeLoss="71.39" rerouteNo="0" devices="tripinfo_81" vType="DEFAULT_VEHTYPE" speedFactor="1.00" vaporized=""/>
    <tripinfo id="25" depart="13.00" departLane="B1A1_0" departPos="5.10" departSpeed="0.00" departDelay="0.50" arrival="134.00" arrivalLane="A4A5_1" arrivalPos="83.20" arrivalSpeed="21.74" duration="121.00" routeLength="566.33" waitingTime="64.00" waitingCount="3" stopTime="0.00" timeLoss="104.80" rerouteNo="0" devices="tripinfo_25" vType="DEFAULT_VEHTYPE" speedFactor="0.87" vaporized=""/>
    <tripinfo id="139" depart="74.00" departLane="A5B5_0" departPos="5.10" departSpeed="0.00" departDelay="4.50" arrival="134.00" arrivalLane="B4B3_1" arrivalPos="79.20" arrivalSpeed="13.90" duration="60.00" routeLength="366.33" waitingTime="23.00" waitingCount="1" stopTime="0.00" timeLoss="50.29" rerouteNo="0" devices="tripinfo_139" vType="DEFAULT_VEHTYPE" speedFactor="0.95" vaporized=""/>
    <tripinfo id="33" depart="17.00" departLane="A4B4_0" departPos="5.10" departSpeed="0.00" departDelay="0.50" arrival="136.00" arrivalLane="A0B0_0" arrivalPos="183.20" arrivalSpeed="9.52" duration="119.00" routeLength="949.21" waitingTime="34.00" waitingCount="2" stopTime="0.00" timeLoss="95.73" rerouteNo="0" devices="tripinfo_33" vType="DEFAULT_VEHTYPE" speedFactor="1.17" vaporized=""/>
    <tripinfo id="99" depart="51.00" departLane="C5C4_0" departPos="5.10" departSpeed="0.00" departDelay="1.50" arrival="137.00" arrivalLane="C2B2_1" arrivalPos="179.20" arrivalSpeed="7.85" duration="86.00" routeLength="466.33" waitingTime="21.00" waitingCount="2" stopTime="0.00" timeLoss="74.61" rerouteNo="0" devices="tripinfo_99" vType="DEFAULT_VEHTYPE" speedFactor="1.10" vaporized=""/>
    <tripinfo id="183" depart="92.00" departLane="A5B5_0" departPos="5.10" departSpeed="0.00" departDelay="0.50" arrival="138.00" arrivalLane="B5C5_0" arrivalPos="183.20" arrivalSpeed="21.80" duration="46.00" routeLength="382.10" waitingTime="15.00" waitingCount="1" stopTime="0.00" timeLoss="37.75" rerouteNo="0" devices="tripinfo_183" vType="DEFAULT_VEHTYPE" speedFactor="1.08" vaporized=""/>
    <tripinfo id="245" depart="123.00" departLane="A4B4_0" departPos="5.10" departSpeed="0.00" departDelay="0.50" arrival="138.00" arrivalLane="A4B4_0" arrivalPos="179.20" arrivalSpeed="18.32" duration="15.00" routeLength="174.10" waitingTime="0.00" waitingCount="0" stopTime="0.00" timeLoss="10.85" rerouteNo="0" devices="tripinfo_245" vType="DEFAULT_VEHTYPE" speedFactor="1.01" vaporized=""/>
    <tripinfo id="1" depart="1.00" departLane="A5B5_0" departPos="5.10" departSpeed="0.00" departDelay="0.50" arrival="141.00" arrivalLane="A4B4_0" arrivalPos="179.20" arrivalSpeed="13.62" duration="140.00" routeLength="831.02" waitingTime="50.00" waitingCount="4" stopTime="0.00" timeLoss="114.51" rerouteNo="0" devices="tripinfo_1" vType="DEFAULT_VEHTYPE" speedFactor="0.94" vaporized=""/>
    <tripinfo id="21" depart="11.00" departLane="A4B4_0" departPos="5.10" departSpeed="0.00" departDelay="0.50" arrival="142.00" arrivalLane="B0A0_1" arrivalPos="183.20" arrivalSpeed="27.81" duration="131.00" routeLength="759.72" waitingTime="59.00" waitingCount="3" stopTime="0.00" timeLoss="111.38" rerouteNo="0" devices="tripinfo_21" vType="DEFAULT_VEHTYPE" speedFactor="1.01" vaporized=""/>
    <tripinfo id="24" depart="12.00" departLane="B4C4_0" departPos="5.10" departSpeed="0.00" departDelay="0.00" arrival="142.00" arrivalLane="B1A1_0" arrivalPos="179.20" arrivalSpeed="10.64" duration="130.00" routeLength="850.56" waitingTime="43.00" waitingCount="3" stopTime="0.00" timeLoss="103.63" rerouteNo="0" devices="tripinfo_24" vType="DEFAULT_VEHTYPE" speedFactor="0.83" vaporized=""/>
    <tripinfo id="169" depart="85.00" departLane="B2B1_0" departPos="5.10" departSpeed="0.00" departDelay="0.50" arrival="143.00" arrivalLane="B0A0_0" arrivalPos="183.20" arrivalSpeed="6.93" duration="58.00" routeLength="366.33" waitingTime="24.00" waitingCount="1" stopTime="0.00" timeLoss="47.55" rerouteNo="0" devices="tripinfo_169" vType="DEFAULT_VEHTYPE" speedFactor="0.94" vaporized=""/>
    <tripinfo id="242" depart="121.00" departLane="C2C3_0" departPos="5.10" departSpeed="0.00" departDelay="0.00" arrival="143.00" arrivalLane="C4C5_0" arrivalPos="83.20" arrivalSpeed="13.48" duration="22.00" routeLength="278.10" waitingTime="0.00" waitingCount="0" stopTime="0.00" timeLoss="15.46" rerouteNo="0" devices="tripinfo_242" vType="DEFAULT_VEHTYPE" speedFactor="0.97" vaporized=""/>
    <tripinfo id="22" depart="11.00" departLane="A1B1_0" departPos="5.10" departSpeed="0.00" departDelay="0.00" arrival="144.00" arrivalLane="A4B4_0" arrivalPos="179.20" arrivalSpeed="18.75" duration="133.00" routeLength="847.68" waitingTime="32.00" waitingCount="5" stopTime="0.00" timeLoss="107.51" rerouteNo="0" devices="tripinfo_22" vType="DEFAULT_VEHTYPE" speedFactor="0.98" vaporized=""/>
    <tripinfo id="54" depart="27.00" departLane="B2B1_0" departPos="5.10" departSpeed="0.00" departDelay="0.00" arrival="145.00" arrivalLane="C4C5_0" arrivalPos="83.20" arrivalSpeed="16.70" duration="118.00" routeLength="675.21" waitingTime="56.00" waitingCount="2" stopTime="0.00" timeLoss="99.75" rerouteNo="0" devices="tripinfo_54" vType="DEFAULT_VEHTYPE" speedFactor="1.00" vaporized=""/>
    <tripinfo id="62" depart="37.00" departLane="A0A1_0" departPos="5.10" departSpeed="0.00" departDelay="6.00" arrival="146.00" arrivalLane="B0C0_1" arrivalPos="183.20" arrivalSpeed="5.05" duration="109.00" routeLength="557.11" waitingTime="53.00" waitingCount="1" stopTime="0.00" timeLoss="92.33" rerouteNo="0" devices="tripinfo_62" vType="DEFAULT_VEHTYPE" speedFactor="1.02" vaporized=""/>
    <tripinfo id="138" depart="74.00" departLane="A2A3_0" departPos="5.10" departSpeed="0.00" departDelay="5.00" arrival="146.00" arrivalLane="B3C3_0" arrivalPos="179.20" arrivalSpeed="5.38" duration="72.00" routeLength="462.33" waitingTime="23.00" waitingCount="2" stopTime="0.00" timeLoss="60.76" rerouteNo="0" devices="tripinfo_138" vType="DEFAULT_VEHTYPE" speedFactor="1.00" vaporized=""/>
    <tripinfo id="64" depart="32.00" departLane="C3B3_0" departPos="5.10" departSpeed="0.00" departDelay="0.00" arrival="147.00" arrivalLane="C2B2_0" arrivalPos="179.20" arrivalSpeed="26.71" duration="115.00" routeLength="827.02" waitingTime="36.00" waitingCount="2" stopTime="0.00" timeLoss="90.75" rerouteNo="0" devices="tripinfo_64" vType="DEFAULT_VEHTYPE" speedFactor="0.94" vaporized=""/>
    <tripinfo id="8" depart="6.00" departLane="A4B4_0" departPos="5.10" departSpeed="0.00" departDelay="2.00" arrival="148.00" arrivalLane="B4A4_1" arrivalPos="179.20" arrivalSpeed="10.48" duration="142.00" routeLength="937.35" waitingTime="38.00" waitingCount="2" stopTime="0.00" timeLoss="113.24" rerouteNo="0" devices="tripinfo_8" vType="DEFAULT_VEHTYPE" speedFactor="0.94" vaporized=""/>
    <tripinfo id="16" depart="8.00" departLane="B3B2_0" departPos="5.10" departSpeed="0.00" departDelay="0.00" arrival="148.00" arrivalLane="C5B5_0" arrivalPos="183.20" arrivalSpeed="16.78" duration="140.00" routeLength="776.47" waitingTime="66.00" waitingCount="3" stopTime="0.00" timeLoss="114.79" rerouteNo="0" devices="tripinfo_16" vType="DEFAULT_VEHTYPE" speedFactor="0.88" vaporized=""/>
    <tripinfo id="4" depart="2.00" departLane="B1C1_0" departPos="5.10" departSpeed="0.00" departDelay="0.00" arrival="149.00" arrivalLane="A0B0_0" arrivalPos="183.20" arrivalSpeed="16.32" duration="147.00" routeLength="1075.02" waitingTime="45.00" waitingCount="4" stopTime="0.00" timeLoss="116.89" rerouteNo="0" devices="tripinfo_4" vType="DEFAULT_VEHTYPE" speedFactor="1.03" vaporized=""/>
    <tripinfo id="129" depart="65.00" departLane="A5B5_0" departPos="5.10" departSpeed="0.00" departDelay="0.50" arrival="149.00" arrivalLane="C4B4_0" arrivalPos="179.20" arrivalSpeed="13.45" duration="84.00" routeLength="656.11" waitingTime="20.00" waitingCount="2" stopTime="0.00" timeLoss="67.40" rerouteNo="0" devices="tripinfo_129" vType="DEFAULT_VEHTYPE" speedFactor="1.01" vaporized=""/>
    <tripinfo id="181" depart="93.00" departLane="B4B3_0" departPos="5.10" departSpeed="0.00" departDelay="2.50" arrival="149.00" arrivalLane="B3A3_0" arrivalPos="179.20" arrivalSpeed="7.22" duration="56.00" routeLength="262.33" waitingTime="19.00" waitingCount="1" stopTime="0.00" timeLoss="48.73" rerouteNo="0" devices="tripinfo_181" vType="DEFAULT_VEHTYPE" speedFactor="1.03" vaporized=""/>
    <tripinfo id="182" depart="94.00" departLane="B1B2_0" departPos="5.10" departSpeed="0.00" departDelay="3.00" arrival="149.00" arrivalLane="B3C3_0" arrivalPos="179.20" arrivalSpeed="7.36" duration="55.00" routeLength="362.33" waitingTime="10.00" waitingCount="1" stopTime="0.00" timeLoss="45.52" rerouteNo="0" devices="tripinfo_182" vType="DEFAULT_VEHTYPE" speedFactor="1.03" vaporized=""/>
    <tripinfo id="9" depart="5.00" departLane="C1C2_0" departPos="5.10" departSpeed="0.00" departDelay="0.50" arrival="150.00" arrivalLane="A0A1_0" arrivalPos="83.20" arrivalSpeed="18.41" duration="145.00" routeLength="749.23" waitingTime="59.00" waitingCount="5" stopTime="0.00" timeLoss="119.86" rerouteNo="0" devices="tripinfo_9" vType="DEFAULT_VEHTYPE" speedFactor="0.86" vaporized=""/>
    <tripinfo id="253" depart="127.00" departLane="A2B2_0" departPos="5.10" departSpeed="0.00" departDelay="0.50" arrival="150.00" arrivalLane="B2B3_1" arrivalPos="79.20" arrivalSpeed="19.05" duration="23.00" routeLength="272.66" waitingTime="0.00" waitingCount="0" stopTime="0.00" timeLoss="15.11" rerouteNo="0" devices="tripinfo_253" vType="DEFAULT_VEHTYPE" speedFactor="0.98" vaporized=""/>
    <tripinfo id="76" depart="38.00" departLane="B2A2_0" departPos="5.10" departSpeed="0.00" departDelay="0.00" arrival="151.00" arrivalLane="B3A3_0" arrivalPos="179.20" arrivalSpeed="8.72" duration="113.00" routeLength="827.02" waitingTime="21.00" waitingCount="3" stopTime="0.00" timeLoss="90.97" rerouteNo="0" devices="tripinfo_76" vType="DEFAULT_VEHTYPE" speedFactor="1.03" vaporized=""/>
    <tripinfo id="41" depart="21.00" departLane="B4A4_0" departPos="5.10" departSpeed="0.00" departDelay="0.50" arrival="152.00" arrivalLane="C3C2_0" arrivalPos="79.20" arrivalSpeed="17.60" duration="131.00" routeLength="759.44" waitingTime="52.00" waitingCount="4" stopTime="0.00" timeLoss="109.16" rerouteNo="0" devices="tripinfo_41" vType="DEFAULT_VEHTYPE" speedFactor="0.96" vaporized=""/>
    <tripinfo id="230" depart="115.00" departLane="A1B1_0" departPos="5.10" departSpeed="0.00" departDelay="0.00" arrival="152.00" arrivalLane="B0A0_0" arrivalPos="183.20" arrivalSpeed="28.79" duration="37.00" routeLength="454.56" waitingTime="0.00" waitingCount="0" stopTime="0.00" timeLoss="24.02" rerouteNo="0" devices="tripinfo_230" vType="DEFAULT_VEHTYPE" speedFactor="1.04" vaporized=""/>
    <tripinfo id="133" depart="67.00" departLane="B4B3_0" departPos="5.10" departSpeed="0.00" departDelay="0.50" arrival="153.00" arrivalLane="C5B5_0" arrivalPos="183.20" arrivalSpeed="9.91" duration="86.00" routeLength="671.31" waitingTime="18.00" waitingCount="2" stopTime="0.00" timeLoss="67.50" rerouteNo="0" devices="tripinfo_133" vType="DEFAULT_VEHTYPE" speedFactor="1.04" vaporized=""/>
    <tripinfo id="147" depart="74.00" departLane="C0B0_0" departPos="5.10" departSpeed="0.00" departDelay="0.50" arrival="153.00" arrivalLane="B3C3_0" arrivalPos="179.20" arrivalSpeed="7.99" duration="79.00" routeLength="654.56" waitingTime="8.00" waitingCount="1" stopTime="0.00" timeLoss="62.35" rerouteNo="0" devices="tripinfo_147" vType="DEFAULT_VEHTYPE" speedFactor="1.00" vaporized=""/>