<?xml version="1.0" encoding="UTF-8"?>

<!-- generated on 2021-06-11 00:00:56 by Eclipse SUMO GUI Version 1.9.2
<configuration xmlns:xsi="http://www.w3.org/2001/XMLSchema-instance" xsi:noNamespaceSchemaLocation="http://sumo.dlr.de/xsd/sumoConfiguration.xsd">

    <input>
        <net-file value="lights.net.xml"/>
        <route-files value="lights.rou.xml"/>
        <additional-files value="lights.add.xml"/>
    </input>

    <output>
        <tripinfo-output value="tripinfo.xml"/>
    </output>

    <traci_server>
        <remote-port value="34475"/>
    </traci_server>

</configuration>
-->

<tripinfos xmlns:xsi="http://www.w3.org/2001/XMLSchema-instance" xsi:noNamespaceSchemaLocation="http://sumo.dlr.de/xsd/tripinfo_file.xsd">
    <tripinfo id="0" depart="0.00" departLane="SR_0" departPos="5.10" departSpeed="0.00" departDelay="0.00" arrival="34.00" arrivalLane="EL_0" arrivalPos="192.80" arrivalSpeed="13.56" duration="34.00" routeLength="389.53" waitingTime="0.00" waitingCount="0" stopTime="0.00" timeLoss="6.30" rerouteNo="0" devices="tripinfo_0" vType="DEFAULT_VEHTYPE" speedFactor="1.06" vaporized=""/>
    <tripinfo id="3" depart="3.00" departLane="WR_0" departPos="5.10" departSpeed="0.00" departDelay="0.00" arrival="38.00" arrivalLane="EL_0" arrivalPos="192.80" arrivalSpeed="11.84" duration="35.00" routeLength="394.90" waitingTime="0.00" waitingCount="0" stopTime="0.00" timeLoss="4.05" rerouteNo="0" devices="tripinfo_3" vType="DEFAULT_VEHTYPE" speedFactor="0.94" vaporized=""/>
    <tripinfo id="9" depart="9.00" departLane="WR_0" departPos="5.10" departSpeed="0.00" departDelay="0.00" arrival="42.00" arrivalLane="EL_0" arrivalPos="192.80" arrivalSpeed="13.19" duration="33.00" routeLength="394.90" waitingTime="0.00" waitingCount="0" stopTime="0.00" timeLoss="4.43" rerouteNo="0" devices="tripinfo_9" vType="DEFAULT_VEHTYPE" speedFactor="1.01" vaporized=""/>
    <tripinfo id="10" depart="12.00" departLane="WR_0" departPos="5.10" departSpeed="0.00" departDelay="2.00" arrival="46.00" arrivalLane="SL_0" arrivalPos="192.80" arrivalSpeed="13.94" duration="34.00" routeLength="389.53" waitingTime="0.00" waitingCount="0" stopTime="0.00" timeLoss="6.85" rerouteNo="0" devices="tripinfo_10" vType="DEFAULT_VEHTYPE" speedFactor="1.08" vaporized=""/>
    <tripinfo id="14" depart="15.00" departLane="WR_0" departPos="5.10" departSpeed="0.00" departDelay="1.00" arrival="50.00" arrivalLane="SL_0" arrivalPos="192.80" arrivalSpeed="13.28" duration="35.00" routeLength="389.53" waitingTime="0.00" waitingCount="0" stopTime="0.00" timeLoss="6.43" rerouteNo="0" devices="tripinfo_14" vType="DEFAULT_VEHTYPE" speedFactor="1.03" vaporized=""/>
    <tripinfo id="21" depart="21.00" departLane="ER_0" departPos="5.10" departSpeed="0.00" departDelay="0.00" arrival="54.00" arrivalLane="NL_0" arrivalPos="192.80" arrivalSpeed="14.55" duration="33.00" routeLength="389.53" waitingTime="0.00" waitingCount="0" stopTime="0.00" timeLoss="6.22" rerouteNo="0" devices="tripinfo_21" vType="DEFAULT_VEHTYPE" speedFactor="1.09" vaporized=""/>
    <tripinfo id="23" depart="24.00" departLane="ER_0" departPos="5.10" departSpeed="0.00" departDelay="1.00" arrival="58.00" arrivalLane="NL_0" arrivalPos="192.80" arrivalSpeed="14.24" duration="34.00" routeLength="389.53" waitingTime="0.00" waitingCount="0" stopTime="0.00" timeLoss="5.88" rerouteNo="0" devices="tripinfo_23" vType="DEFAULT_VEHTYPE" speedFactor="1.03" vaporized=""/>
    <tripinfo id="15" depart="18.00" departLane="WR_0" departPos="5.10" departSpeed="0.00" departDelay="3.00" arrival="59.00" arrivalLane="SL_0" arrivalPos="192.80" arrivalSpeed="11.33" duration="41.00" routeLength="389.53" waitingTime="0.00" waitingCount="0" stopTime="0.00" timeLoss="5.47" rerouteNo="0" devices="tripinfo_15" vType="DEFAULT_VEHTYPE" speedFactor="0.83" vaporized=""/>
    <tripinfo id="18" depart="21.00" departLane="WR_0" departPos="5.10" departSpeed="0.00" departDelay="3.00" arrival="61.00" arrivalLane="SL_0" arrivalPos="192.80" arrivalSpeed="11.45" duration="40.00" routeLength="389.53" waitingTime="0.00" waitingCount="0" stopTime="0.00" timeLoss="6.54" rerouteNo="0" devices="tripinfo_18" vType="DEFAULT_VEHTYPE" speedFactor="0.89" vaporized=""/>
    <tripinfo id="19" depart="24.00" departLane="WR_0" departPos="5.10" departSpeed="0.00" departDelay="5.00" arrival="62.00" arrivalLane="SL_0" arrivalPos="192.80" arrivalSpeed="11.87" duration="38.00" routeLength="389.53" waitingTime="0.00" waitingCount="0" stopTime="0.00" timeLoss="7.04" rerouteNo="0" devices="tripinfo_19" vType="DEFAULT_VEHTYPE" speedFactor="0.94" vaporized=""/>
    <tripinfo id="29" depart="29.00" departLane="ER_0" departPos="5.10" departSpeed="0.00" departDelay="0.00" arrival="65.00" arrivalLane="NL_0" arrivalPos="192.80" arrivalSpeed="13.24" duration="36.00" routeLength="389.53" waitingTime="0.00" waitingCount="0" stopTime="0.00" timeLoss="6.54" rerouteNo="0" devices="tripinfo_29" vType="DEFAULT_VEHTYPE" speedFactor="0.99" vaporized=""/>
    <tripinfo id="30" depart="30.00" departLane="WR_0" departPos="5.10" departSpeed="0.00" departDelay="0.00" arrival="68.00" arrivalLane="SL_0" arrivalPos="192.80" arrivalSpeed="11.94" duration="38.00" routeLength="389.53" waitingTime="0.00" waitingCount="0" stopTime="0.00" timeLoss="6.03" rerouteNo="0" devices="tripinfo_30" vType="DEFAULT_VEHTYPE" speedFactor="0.93" vaporized=""/>
    <tripinfo id="35" depart="35.00" departLane="ER_0" departPos="5.10" departSpeed="0.00" departDelay="0.00" arrival="72.00" arrivalLane="WL_0" arrivalPos="192.80" arrivalSpeed="11.67" duration="37.00" routeLength="394.90" waitingTime="0.00" waitingCount="0" stopTime="0.00" timeLoss="4.26" rerouteNo="0" devices="tripinfo_35" vType="DEFAULT_VEHTYPE" speedFactor="0.88" vaporized=""/>
    <tripinfo id="17" depart="17.00" departLane="NR_0" departPos="5.10" departSpeed="0.00" departDelay="0.00" arrival="76.00" arrivalLane="SL_0" arrivalPos="192.80" arrivalSpeed="13.34" duration="59.00" routeLength="394.90" waitingTime="21.00" waitingCount="1" stopTime="0.00" timeLoss="31.00" rerouteNo="0" devices="tripinfo_17" vType="DEFAULT_VEHTYPE" speedFactor="1.05" vaporized=""/>
    <tripinfo id="26" depart="26.00" departLane="NR_0" departPos="5.10" departSpeed="0.00" departDelay="0.00" arrival="77.00" arrivalLane="WL_0" arrivalPos="192.80" arrivalSpeed="14.63" duration="51.00" routeLength="389.53" waitingTime="13.00" waitingCount="1" stopTime="0.00" timeLoss="24.81" rerouteNo="0" devices="tripinfo_26" vType="DEFAULT_VEHTYPE" speedFactor="1.12" vaporized=""/>
    <tripinfo id="20" depart="20.00" departLane="SR_0" departPos="5.10" departSpeed="0.00" departDelay="0.00" arrival="78.00" arrivalLane="EL_0" arrivalPos="192.80" arrivalSpeed="11.53" duration="58.00" routeLength="389.53" waitingTime="16.00" waitingCount="1" stopTime="0.00" timeLoss="24.48" rerouteNo="0" devices="tripinfo_20" vType="DEFAULT_VEHTYPE" speedFactor="0.86" vaporized=""/>
    <tripinfo id="24" depart="24.00" departLane="SR_0" departPos="5.10" departSpeed="0.00" departDelay="0.00" arrival="78.00" arrivalLane="NL_0" arrivalPos="192.80" arrivalSpeed="14.41" duration="54.00" routeLength="394.90" waitingTime="14.00" waitingCount="1" stopTime="0.00" timeLoss="26.24" rerouteNo="0" devices="tripinfo_24" vType="DEFAULT_VEHTYPE" speedFactor="1.05" vaporized=""/>
    <tripinfo id="37" depart="37.00" departLane="SR_0" departPos="5.10" departSpeed="0.00" departDelay="0.00" arrival="81.00" arrivalLane="NL_0" arrivalPos="192.80" arrivalSpeed="12.86" duration="44.00" routeLength="394.90" waitingTime="4.00" waitingCount="1" stopTime="0.00" timeLoss="13.26" rerouteNo="0" devices="tripinfo_37" vType="DEFAULT_VEHTYPE" speedFactor="0.94" vaporized=""/>
    <tripinfo id="40" depart="40.00" departLane="SR_0" departPos="5.10" departSpeed="0.00" departDelay="0.00" arrival="83.00" arrivalLane="NL_0" arrivalPos="192.80" arrivalSpeed="12.54" duration="43.00" routeLength="394.90" waitingTime="1.00" waitingCount="1" stopTime="0.00" timeLoss="12.35" rerouteNo="0" devices="tripinfo_40" vType="DEFAULT_VEHTYPE" speedFactor="0.94" vaporized=""/>
    <tripinfo id="52" depart="52.00" departLane="NR_0" departPos="5.10" departSpeed="0.00" departDelay="0.00" arrival="86.00" arrivalLane="SL_0" arrivalPos="192.80" arrivalSpeed="12.59" duration="34.00" routeLength="394.90" waitingTime="0.00" waitingCount="0" stopTime="0.00" timeLoss="4.77" rerouteNo="0" devices="tripinfo_52" vType="DEFAULT_VEHTYPE" speedFactor="0.98" vaporized=""/>
    <tripinfo id="54" depart="55.00" departLane="NR_0" departPos="5.10" departSpeed="0.00" departDelay="1.00" arrival="96.00" arrivalLane="WL_0" arrivalPos="192.80" arrivalSpeed="10.51" duration="41.00" routeLength="389.53" waitingTime="0.00" waitingCount="0" stopTime="0.00" timeLoss="6.23" rerouteNo="0" devices="tripinfo_54" vType="DEFAULT_VEHTYPE" speedFactor="0.83" vaporized=""/>
    <tripinfo id="56" depart="56.00" departLane="SR_0" departPos="5.10" departSpeed="0.00" departDelay="0.00" arrival="96.00" arrivalLane="EL_0" arrivalPos="192.80" arrivalSpeed="11.76" duration="40.00" routeLength="389.53" waitingTime="0.00" waitingCount="0" stopTime="0.00" timeLoss="6.31" rerouteNo="0" devices="tripinfo_56" vType="DEFAULT_VEHTYPE" speedFactor="0.87" vaporized=""/>
    <tripinfo id="58" depart="58.00" departLane="NR_0" departPos="5.10" departSpeed="0.00" departDelay="0.00" arrival="97.00" arrivalLane="SL_0" arrivalPos="192.80" arrivalSpeed="12.14" duration="39.00" routeLength="394.90" waitingTime="0.00" waitingCount="0" stopTime="0.00" timeLoss="7.28" rerouteNo="0" devices="tripinfo_58" vType="DEFAULT_VEHTYPE" speedFactor="0.92" vaporized=""/>
    <tripinfo id="59" depart="59.00" departLane="SR_0" departPos="5.10" departSpeed="0.00" departDelay="0.00" arrival="98.00" arrivalLane="EL_0" arrivalPos="192.80" arrivalSpeed="12.82" duration="39.00" routeLength="389.53" waitingTime="0.00" waitingCount="0" stopTime="0.00" timeLoss="8.12" rerouteNo="0" devices="tripinfo_59" vType="DEFAULT_VEHTYPE" speedFactor="0.95" vaporized=""/>
    <tripinfo id="70" depart="70.00" departLane="NR_0" departPos="5.10" departSpeed="0.00" departDelay="0.00" arrival="102.00" arrivalLane="SL_0" arrivalPos="192.80" arrivalSpeed="13.01" duration="32.00" routeLength="394.90" waitingTime="0.00" waitingCount="0" stopTime="0.00" timeLoss="3.61" rerouteNo="0" devices="tripinfo_70" vType="DEFAULT_VEHTYPE" speedFactor="1.02" vaporized=""/>
    <tripinfo id="71" depart="73.00" departLane="NR_0" departPos="5.10" departSpeed="0.00" departDelay="2.00" arrival="109.00" arrivalLane="WL_0" arrivalPos="192.80" arrivalSpeed="13.45" duration="36.00" routeLength="389.53" waitingTime="0.00" waitingCount="0" stopTime="0.00" timeLoss="5.52" rerouteNo="0" devices="tripinfo_71" vType="DEFAULT_VEHTYPE" speedFactor="0.97" vaporized=""/>
    <tripinfo id="76" depart="76.00" departLane="NR_0" departPos="5.10" departSpeed="0.00" departDelay="0.00" arrival="112.00" arrivalLane="SL_0" arrivalPos="192.80" arrivalSpeed="11.85" duration="36.00" routeLength="394.90" waitingTime="0.00" waitingCount="0" stopTime="0.00" timeLoss="3.87" rerouteNo="0" devices="tripinfo_76" vType="DEFAULT_VEHTYPE" speedFactor="0.90" vaporized=""/>
    <tripinfo id="43" depart="43.00" departLane="WR_0" departPos="5.10" departSpeed="0.00" departDelay="0.00" arrival="114.00" arrivalLane="SL_0" arrivalPos="192.80" arrivalSpeed="14.91" duration="71.00" routeLength="389.53" waitingTime="34.00" waitingCount="1" stopTime="0.00" timeLoss="45.59" rerouteNo="0" devices="tripinfo_43" vType="DEFAULT_VEHTYPE" speedFactor="1.16" vaporized=""/>
    <tripinfo id="47" depart="47.00" departLane="ER_0" departPos="5.10" departSpeed="0.00" departDelay="0.00" arrival="114.00" arrivalLane="NL_0" arrivalPos="192.80" arrivalSpeed="13.27" duration="67.00" routeLength="389.53" waitingTime="29.00" waitingCount="1" stopTime="0.00" timeLoss="38.38" rerouteNo="0" devices="tripinfo_47" vType="DEFAULT_VEHTYPE" speedFactor="1.02" vaporized=""/>
    <tripinfo id="48" depart="48.00" departLane="WR_0" departPos="5.10" departSpeed="0.00" departDelay="0.00" arrival="116.00" arrivalLane="SL_0" arrivalPos="192.80" arrivalSpeed="13.39" duration="68.00" routeLength="389.53" waitingTime="30.00" waitingCount="1" stopTime="0.00" timeLoss="39.41" rerouteNo="0" devices="tripinfo_48" vType="DEFAULT_VEHTYPE" speedFactor="1.01" vaporized=""/>
    <tripinfo id="60" depart="60.00" departLane="WR_0" departPos="5.10" departSpeed="0.00" departDelay="0.00" arrival="118.00" arrivalLane="SL_0" arrivalPos="192.80" arrivalSpeed="14.52" duration="58.00" routeLength="389.53" waitingTime="20.00" waitingCount="1" stopTime="0.00" timeLoss="32.00" rerouteNo="0" devices="tripinfo_60" vType="DEFAULT_VEHTYPE" speedFactor="1.13" vaporized=""/>
    <tripinfo id="53" depart="53.00" departLane="ER_0" departPos="5.10" departSpeed="0.00" departDelay="0.00" arrival="119.00" arrivalLane="NL_0" arrivalPos="192.80" arrivalSpeed="11.16" duration="66.00" routeLength="389.53" waitingTime="24.00" waitingCount="1" stopTime="0.00" timeLoss="33.09" rerouteNo="0" devices="tripinfo_53" vType="DEFAULT_VEHTYPE" speedFactor="0.89" vaporized=""/>
    <tripinfo id="63" depart="65.00" departLane="ER_0" departPos="5.10" departSpeed="0.00" departDelay="2.00" arrival="119.00" arrivalLane="WL_0" arrivalPos="192.80" arrivalSpeed="15.43" duration="54.00" routeLength="394.90" waitingTime="16.00" waitingCount="1" stopTime="0.00" timeLoss="28.60" rerouteNo="0" devices="tripinfo_63" vType="DEFAULT_VEHTYPE" speedFactor="1.15" vaporized=""/>
    <tripinfo id="62" depart="62.00" departLane="ER_0" departPos="5.10" departSpeed="0.00" departDelay="0.00" arrival="120.00" arrivalLane="NL_0" arrivalPos="192.80" arrivalSpeed="12.89" duration="58.00" routeLength="389.53" waitingTime="18.00" waitingCount="1" stopTime="0.00" timeLoss="33.12" rerouteNo="0" devices="tripinfo_62" vType="DEFAULT_VEHTYPE" speedFactor="1.18" vaporized=""/>
    <tripinfo id="61" depart="63.00" departLane="WR_0" departPos="5.10" departSpeed="0.00" departDelay="2.00" arrival="123.00" arrivalLane="SL_0" arrivalPos="192.80" arrivalSpeed="12.51" duration="60.00" routeLength="389.53" waitingTime="18.00" waitingCount="1" stopTime="0.00" timeLoss="28.86" rerouteNo="0" devices="tripinfo_61" vType="DEFAULT_VEHTYPE" speedFactor="0.93" vaporized=""/>
    <tripinfo id="67" depart="68.00" departLane="ER_0" departPos="5.10" departSpeed="0.00" departDelay="1.00" arrival="123.00" arrivalLane="NL_0" arrivalPos="192.80" arrivalSpeed="13.30" duration="55.00" routeLength="389.53" waitingTime="13.00" waitingCount="1" stopTime="0.00" timeLoss="26.57" rerouteNo="0" devices="tripinfo_67" vType="DEFAULT_VEHTYPE" speedFactor="1.01" vaporized=""/>
    <tripinfo id="68" depart="71.00" departLane="ER_0" departPos="5.10" departSpeed="0.00" departDelay="3.00" arrival="123.00" arrivalLane="WL_0" arrivalPos="192.80" arrivalSpeed="15.80" duration="52.00" routeLength="394.90" waitingTime="12.00" waitingCount="1" stopTime="0.00" timeLoss="27.35" rerouteNo="0" devices="tripinfo_68" vType="DEFAULT_VEHTYPE" speedFactor="1.17" vaporized=""/>
    <tripinfo id="69" depart="69.00" departLane="WR_0" departPos="5.10" departSpeed="0.00" departDelay="0.00" arrival="124.00" arrivalLane="EL_0" arrivalPos="192.80" arrivalSpeed="13.18" duration="55.00" routeLength="394.90" waitingTime="13.00" waitingCount="1" stopTime="0.00" timeLoss="25.93" rerouteNo="0" devices="tripinfo_69" vType="DEFAULT_VEHTYPE" speedFactor="0.99" vaporized=""/>
    <tripinfo id="75" depart="75.00" departLane="WR_0" departPos="5.10" departSpeed="0.00" departDelay="0.00" arrival="125.00" arrivalLane="SL_0" arrivalPos="192.80" arrivalSpeed="15.05" duration="50.00" routeLength="389.53" waitingTime="8.00" waitingCount="1" stopTime="0.00" timeLoss="23.86" rerouteNo="0" devices="tripinfo_75" vType="DEFAULT_VEHTYPE" speedFactor="1.10" vaporized=""/>
    <tripinfo id="74" depart="74.00" departLane="ER_0" departPos="5.10" departSpeed="0.00" departDelay="0.00" arrival="126.00" arrivalLane="NL_0" arrivalPos="192.80" arrivalSpeed="15.52" duration="52.00" routeLength="389.53" waitingTime="12.00" waitingCount="1" stopTime="0.00" timeLoss="26.78" rerouteNo="0" devices="tripinfo_74" vType="DEFAULT_VEHTYPE" speedFactor="1.18" vaporized=""/>
    <tripinfo id="82" depart="82.00" departLane="WR_0" departPos="5.10" departSpeed="0.00" departDelay="0.00" arrival="127.00" arrivalLane="EL_0" arrivalPos="192.80" arrivalSpeed="14.68" duration="45.00" routeLength="394.90" waitingTime="2.00" waitingCount="1" stopTime="0.00" timeLoss="18.23" rerouteNo="0" devices="tripinfo_82" vType="DEFAULT_VEHTYPE" speedFactor="1.09" vaporized=""/>
    <tripinfo id="81" depart="81.00" departLane="ER_0" departPos="5.10" departSpeed="0.00" departDelay="0.00" arrival="130.00" arrivalLane="WL_0" arrivalPos="192.80" arrivalSpeed="12.99" duration="49.00" routeLength="394.90" waitingTime="4.00" waitingCount="1" stopTime="0.00" timeLoss="19.02" rerouteNo="0" devices="tripinfo_81" vType="DEFAULT_VEHTYPE" speedFactor="0.96" vaporized=""/>
    <tripinfo id="85" depart="85.00" departLane="WR_0" departPos="5.10" departSpeed="0.00" departDelay="0.00" arrival="131.00" arrivalLane="SL_0" arrivalPos="192.80" arrivalSpeed="14.28" duration="46.00" routeLength="389.53" waitingTime="1.00" waitingCount="1" stopTime="0.00" timeLoss="17.59" rerouteNo="0" devices="tripinfo_85" vType="DEFAULT_VEHTYPE" speedFactor="1.04" vaporized=""/>
    <tripinfo id="87" depart="88.00" departLane="WR_0" departPos="5.10" departSpeed="0.00" departDelay="1.00" arrival="132.00" arrivalLane="EL_0" arrivalPos="192.80" arrivalSpeed="14.18" duration="44.00" routeLength="394.90" waitingTime="0.00" waitingCount="0" stopTime="0.00" timeLoss="17.63" rerouteNo="0" devices="tripinfo_87" vType="DEFAULT_VEHTYPE" speedFactor="1.09" vaporized=""/>
    <tripinfo id="88" depart="88.00" departLane="ER_0" departPos="5.10" departSpeed="0.00" departDelay="0.00" arrival="133.00" arrivalLane="NL_0" arrivalPos="192.80" arrivalSpeed="13.05" duration="45.00" routeLength="389.53" waitingTime="1.00" waitingCount="1" stopTime="0.00" timeLoss="15.85" rerouteNo="0" devices="tripinfo_88" vType="DEFAULT_VEHTYPE" speedFactor="1.00" vaporized=""/>
    <tripinfo id="91" depart="91.00" departLane="WR_0" departPos="5.10" departSpeed="0.00" departDelay="0.00" arrival="137.00" arrivalLane="EL_0" arrivalPos="192.80" arrivalSpeed="11.27" duration="46.00" routeLength="394.90" waitingTime="0.00" waitingCount="0" stopTime="0.00" timeLoss="13.67" rerouteNo="0" devices="tripinfo_91" vType="DEFAULT_VEHTYPE" speedFactor="0.90" vaporized=""/>
    <tripinfo id="94" depart="94.00" departLane="ER_0" departPos="5.10" departSpeed="0.00" departDelay="0.00" arrival="138.00" arrivalLane="NL_0" arrivalPos="192.80" arrivalSpeed="11.25" duration="44.00" routeLength="389.53" waitingTime="0.00" waitingCount="0" stopTime="0.00" timeLoss="10.15" rerouteNo="0" devices="tripinfo_94" vType="DEFAULT_VEHTYPE" speedFactor="0.85" vaporized=""/>
    <tripinfo id="93" depart="94.00" departLane="WR_0" departPos="5.10" departSpeed="0.00" departDelay="1.00" arrival="139.00" arrivalLane="EL_0" arrivalPos="192.80" arrivalSpeed="10.98" duration="45.00" routeLength="394.90" waitingTime="0.00" waitingCount="0" stopTime="0.00" timeLoss="11.89" rerouteNo="0" devices="tripinfo_93" vType="DEFAULT_VEHTYPE" speedFactor="0.88" vaporized=""/>
    <tripinfo id="96" depart="97.00" departLane="ER_0" departPos="5.10" departSpeed="0.00" departDelay="1.00" arrival="141.00" arrivalLane="WL_0" arrivalPos="192.80" arrivalSpeed="11.34" duration="44.00" routeLength="394.90" waitingTime="0.00" waitingCount="0" stopTime="0.00" timeLoss="10.25" rerouteNo="0" devices="tripinfo_96" vType="DEFAULT_VEHTYPE" speedFactor="0.85" vaporized=""/>
    <tripinfo id="101" depart="101.00" departLane="WR_0" departPos="5.10" departSpeed="0.00" departDelay="0.00" arrival="141.00" arrivalLane="EL_0" arrivalPos="192.80" arrivalSpeed="15.17" duration="40.00" routeLength="394.90" waitingTime="0.00" waitingCount="0" stopTime="0.00" timeLoss="13.08" rerouteNo="0" devices="tripinfo_101" vType="DEFAULT_VEHTYPE" speedFactor="1.10" vaporized=""/>
    <tripinfo id="110" depart="110.00" departLane="WR_0" departPos="5.10" departSpeed="0.00" departDelay="0.00" arrival="142.00" arrivalLane="SL_0" arrivalPos="192.80" arrivalSpeed="14.72" duration="32.00" routeLength="389.53" waitingTime="0.00" waitingCount="0" stopTime="0.00" timeLoss="6.29" rerouteNo="0" devices="tripinfo_110" vType="DEFAULT_VEHTYPE" speedFactor="1.14" vaporized=""/>
    <tripinfo id="109" depart="109.00" departLane="ER_0" departPos="5.10" departSpeed="0.00" departDelay="0.00" arrival="147.00" arrivalLane="NL_0" arrivalPos="192.80" arrivalSpeed="11.60" duration="38.00" routeLength="389.53" waitingTime="0.00" waitingCount="0" stopTime="0.00" timeLoss="6.32" rerouteNo="0" devices="tripinfo_109" vType="DEFAULT_VEHTYPE" speedFactor="0.90" vaporized=""/>
    <tripinfo id="114" depart="114.00" departLane="ER_0" departPos="5.10" departSpeed="0.00" departDelay="0.00" arrival="148.00" arrivalLane="WL_0" arrivalPos="192.80" arrivalSpeed="13.14" duration="34.00" routeLength="394.90" waitingTime="0.00" waitingCount="0" stopTime="0.00" timeLoss="5.53" rerouteNo="0" devices="tripinfo_114" vType="DEFAULT_VEHTYPE" speedFactor="1.02" vaporized=""/>
    <tripinfo id="118" depart="118.00" departLane="WR_0" departPos="5.10" departSpeed="0.00" departDelay="0.00" arrival="152.00" arrivalLane="EL_0" arrivalPos="192.80" arrivalSpeed="13.21" duration="34.00" routeLength="394.90" waitingTime="0.00" waitingCount="0" stopTime="0.00" timeLoss="4.08" rerouteNo="0" devices="tripinfo_118" vType="DEFAULT_VEHTYPE" speedFactor="0.97" vaporized=""/>
    <tripinfo id="123" depart="123.00" departLane="ER_0" departPos="5.10" departSpeed="0.00" departDelay="0.00" arrival="155.00" arrivalLane="NL_0" arrivalPos="192.80" arrivalSpeed="15.43" duration="32.00" routeLength="389.53" waitingTime="0.00" waitingCount="0" stopTime="0.00" timeLoss="6.20" rerouteNo="0" devices="tripinfo_123" vType="DEFAULT_VEHTYPE" speedFactor="1.12" vaporized=""/>
    <tripinfo id="126" depart="126.00" departLane="ER_0" departPos="5.10" departSpeed="0.00" departDelay="0.00" arrival="163.00" arrivalLane="NL_0" arrivalPos="192.80" arrivalSpeed="12.58" duration="37.00" routeLength="389.53" waitingTime="0.00" waitingCount="0" stopTime="0.00" timeLoss="5.88" rerouteNo="0" devices="tripinfo_126" vType="DEFAULT_VEHTYPE" speedFactor="0.94" vaporized=""/>
    <tripinfo id="132" depart="132.00" departLane="WR_0" departPos="5.10" departSpeed="0.00" departDelay="0.00" arrival="170.00" arrivalLane="SL_0" arrivalPos="192.80" arrivalSpeed="11.75" duration="38.00" routeLength="389.53" waitingTime="0.00" waitingCount="0" stopTime="0.00" timeLoss="6.43" rerouteNo="0" devices="tripinfo_132" vType="DEFAULT_VEHTYPE" speedFactor="0.91" vaporized=""/>
    <tripinfo id="98" depart="98.00" departLane="SR_0" departPos="5.10" departSpeed="0.00" departDelay="0.00" arrival="171.00" arrivalLane="EL_0" arrivalPos="192.80" arrivalSpeed="13.81" duration="73.00" routeLength="389.53" waitingTime="34.00" waitingCount="1" stopTime="0.00" timeLoss="44.35" rerouteNo="0" devices="tripinfo_98" vType="DEFAULT_VEHTYPE" speedFactor="1.02" vaporized=""/>
    <tripinfo id="78" depart="79.00" departLane="NR_0" departPos="5.10" departSpeed="0.00" departDelay="1.00" arrival="172.00" arrivalLane="SL_0" arrivalPos="192.80" arrivalSpeed="13.74" duration="93.00" routeLength="394.90" waitingTime="55.00" waitingCount="1" stopTime="0.00" timeLoss="64.87" rerouteNo="0" devices="tripinfo_78" vType="DEFAULT_VEHTYPE" speedFactor="1.03" vaporized=""/>
    <tripinfo id="86" depart="86.00" departLane="NR_0" departPos="5.10" departSpeed="0.00" departDelay="0.00" arrival="172.00" arrivalLane="WL_0" arrivalPos="192.80" arrivalSpeed="14.22" duration="86.00" routeLength="389.53" waitingTime="49.00" waitingCount="1" stopTime="0.00" timeLoss="58.28" rerouteNo="0" devices="tripinfo_86" vType="DEFAULT_VEHTYPE" speedFactor="1.04" vaporized=""/>
    <tripinfo id="124" depart="124.00" departLane="SR_0" departPos="5.10" departSpeed="0.00" departDelay="0.00" arrival="173.00" arrivalLane="NL_0" arrivalPos="192.80" arrivalSpeed="13.09" duration="49.00" routeLength="394.90" waitingTime="10.00" waitingCount="1" stopTime="0.00" timeLoss="20.54" rerouteNo="0" devices="tripinfo_124" vType="DEFAULT_VEHTYPE" speedFactor="1.02" vaporized=""/>
    <tripinfo id="97" depart="97.00" departLane="NR_0" departPos="5.10" departSpeed="0.00" departDelay="0.00" arrival="174.00" arrivalLane="WL_0" arrivalPos="192.80" arrivalSpeed="15.43" duration="77.00" routeLength="389.53" waitingTime="40.00" waitingCount="1" stopTime="0.00" timeLoss="51.40" rerouteNo="0" devices="tripinfo_97" vType="DEFAULT_VEHTYPE" speedFactor="1.17" vaporized=""/>
    <tripinfo id="134" depart="134.00" departLane="SR_0" departPos="5.10" departSpeed="0.00" departDelay="0.00" arrival="177.00" arrivalLane="EL_0" arrivalPos="192.80" arrivalSpeed="12.14" duration="43.00" routeLength="389.53" waitingTime="1.00" waitingCount="1" stopTime="0.00" timeLoss="11.58" rerouteNo="0" devices="tripinfo_134" vType="DEFAULT_VEHTYPE" speedFactor="0.91" vaporized=""/>
    <tripinfo id="104" depart="104.00" departLane="NR_0" departPos="5.10" departSpeed="0.00" departDelay="0.00" arrival="178.00" arrivalLane="WL_0" arrivalPos="192.80" arrivalSpeed="13.39" duration="74.00" routeLength="389.53" waitingTime="33.00" waitingCount="1" stopTime="0.00" timeLoss="44.88" rerouteNo="0" devices="tripinfo_104" vType="DEFAULT_VEHTYPE" speedFactor="1.00" vaporized=""/>
    <tripinfo id="140" depart="140.00" departLane="SR_0" departPos="5.10" departSpeed="0.00" departDelay="0.00" arrival="179.00" arrivalLane="EL_0" arrivalPos="192.80" arrivalSpeed="13.24" duration="39.00" routeLength="389.53" waitingTime="0.00" waitingCount="0" stopTime="0.00" timeLoss="10.15" rerouteNo="0" devices="tripinfo_140" vType="DEFAULT_VEHTYPE" speedFactor="1.02" vaporized=""/>
    <tripinfo id="105" depart="107.00" departLane="NR_0" departPos="5.10" departSpeed="0.00" departDelay="2.00" arrival="180.00" arrivalLane="WL_0" arrivalPos="192.80" arrivalSpeed="12.58" duration="73.00" routeLength="389.53" waitingTime="32.00" waitingCount="1" stopTime="0.00" timeLoss="43.73" rerouteNo="0" devices="tripinfo_105" vType="DEFAULT_VEHTYPE" speedFactor="1.00" vaporized=""/>
    <tripinfo id="141" depart="143.00" departLane="SR_0" departPos="5.10" departSpeed="0.00" departDelay="2.00" arrival="180.00" arrivalLane="NL_0" arrivalPos="192.80" arrivalSpeed="13.46" duration="37.00" routeLength="394.90" waitingTime="0.00" waitingCount="0" stopTime="0.00" timeLoss="9.04" rerouteNo="0" devices="tripinfo_141" vType="DEFAULT_VEHTYPE" speedFactor="1.02" vaporized=""/>
    <tripinfo id="120" depart="120.00" departLane="NR_0" departPos="5.10" departSpeed="0.00" departDelay="0.00" arrival="181.00" arrivalLane="SL_0" arrivalPos="192.80" arrivalSpeed="14.58" duration="61.00" routeLength="394.90" waitingTime="20.00" waitingCount="1" stopTime="0.00" timeLoss="34.18" rerouteNo="0" devices="tripinfo_120" vType="DEFAULT_VEHTYPE" speedFactor="1.08" vaporized=""/>
    <tripinfo id="146" depart="146.00" departLane="SR_0" departPos="5.10" departSpeed="0.00" departDelay="0.00" arrival="183.00" arrivalLane="NL_0" arrivalPos="192.80" arrivalSpeed="12.24" duration="37.00" routeLength="394.90" waitingTime="0.00" waitingCount="0" stopTime="0.00" timeLoss="6.95" rerouteNo="0" devices="tripinfo_146" vType="DEFAULT_VEHTYPE" speedFactor="0.96" vaporized=""/>
    <tripinfo id="125" depart="125.00" departLane="NR_0" departPos="5.10" departSpeed="0.00" departDelay="0.00" arrival="185.00" arrivalLane="WL_0" arrivalPos="192.80" arrivalSpeed="12.91" duration="60.00" routeLength="389.53" waitingTime="16.00" waitingCount="1" stopTime="0.00" timeLoss="30.69" rerouteNo="0" devices="tripinfo_125" vType="DEFAULT_VEHTYPE" speedFactor="0.99" vaporized=""/>
    <tripinfo id="129" depart="129.00" departLane="NR_0" departPos="5.10" departSpeed="0.00" departDelay="0.00" arrival="190.00" arrivalLane="WL_0" arrivalPos="192.80" arrivalSpeed="10.97" duration="61.00" routeLength="389.53" waitingTime="13.00" waitingCount="1" stopTime="0.00" timeLoss="27.45" rerouteNo="0" devices="tripinfo_129" vType="DEFAULT_VEHTYPE" speedFactor="0.88" vaporized=""/>
    <tripinfo id="139" depart="139.00" departLane="NR_0" departPos="5.10" departSpeed="0.00" departDelay="0.00" arrival="190.00" arrivalLane="SL_0" arrivalPos="192.80" arrivalSpeed="14.23" duration="51.00" routeLength="394.90" waitingTime="7.00" waitingCount="1" stopTime="0.00" timeLoss="22.90" rerouteNo="0" devices="tripinfo_139" vType="DEFAULT_VEHTYPE" speedFactor="1.04" vaporized=""/>
    <tripinfo id="142" depart="142.00" departLane="NR_0" departPos="5.10" departSpeed="0.00" departDelay="0.00" arrival="193.00" arrivalLane="WL_0" arrivalPos="192.80" arrivalSpeed="13.49" duration="51.00" routeLength="389.53" waitingTime="6.00" waitingCount="1" stopTime="0.00" timeLoss="21.28" rerouteNo="0" devices="tripinfo_142" vType="DEFAULT_VEHTYPE" speedFactor="0.97" vaporized=""/>
    <tripinfo id="153" depart="153.00" departLane="NR_0" departPos="5.10" departSpeed="0.00" departDelay="0.00" arrival="195.00" arrivalLane="WL_0" arrivalPos="192.80" arrivalSpeed="13.01" duration="42.00" routeLength="389.53" waitingTime="0.00" waitingCount="0" stopTime="0.00" timeLoss="12.91" rerouteNo="0" devices="tripinfo_153" vType="DEFAULT_VEHTYPE" speedFactor="1.01" vaporized=""/>
    <tripinfo id="158" depart="158.00" departLane="NR_0" departPos="5.10" departSpeed="0.00" departDelay="0.00" arrival="196.00" arrivalLane="SL_0" arrivalPos="192.80" arrivalSpeed="14.11" duration="38.00" routeLength="394.90" waitingTime="0.00" waitingCount="0" stopTime="0.00" timeLoss="10.29" rerouteNo="0" devices="tripinfo_158" vType="DEFAULT_VEHTYPE" speedFactor="1.03" vaporized=""/>