<?xml version="1.0" encoding="UTF-8"?>

<!-- generated on 2021-06-05 10:37:09 by Eclipse SUMO GUI Version 1.9.2
<configuration xmlns:xsi="http://www.w3.org/2001/XMLSchema-instance" xsi:noNamespaceSchemaLocation="http://sumo.dlr.de/xsd/sumoConfiguration.xsd">

    <input>
        <net-file value="lights.net.xml"/>
        <route-files value="lights.rou.xml"/>
        <additional-files value="lights.add.xml"/>
    </input>

    <output>
        <tripinfo-output value="tripinfo.xml"/>
    </output>

    <traci_server>
        <remote-port value="59365"/>
    </traci_server>

</configuration>
-->

<tripinfos xmlns:xsi="http://www.w3.org/2001/XMLSchema-instance" xsi:noNamespaceSchemaLocation="http://sumo.dlr.de/xsd/tripinfo_file.xsd">
    <tripinfo id="4" depart="4.00" departLane="SR_0" departPos="5.10" departSpeed="0.00" departDelay="0.00" arrival="54.00" arrivalLane="NL_0" arrivalPos="192.80" arrivalSpeed="7.86" duration="50.00" routeLength="394.90" waitingTime="0.00" waitingCount="0" stopTime="0.00" timeLoss="10.05" rerouteNo="0" devices="tripinfo_4" vType="car" speedFactor="1.03" vaporized=""/>
    <tripinfo id="5" depart="7.00" departLane="SR_0" departPos="5.10" departSpeed="0.00" departDelay="2.00" arrival="59.00" arrivalLane="NL_0" arrivalPos="192.80" arrivalSpeed="9.65" duration="52.00" routeLength="394.90" waitingTime="0.00" waitingCount="0" stopTime="0.00" timeLoss="11.60" rerouteNo="0" devices="tripinfo_5" vType="car" speedFactor="0.83" vaporized=""/>
    <tripinfo id="6" depart="11.00" departLane="SR_0" departPos="5.10" departSpeed="0.00" departDelay="5.00" arrival="62.00" arrivalLane="NL_0" arrivalPos="192.80" arrivalSpeed="9.41" duration="51.00" routeLength="394.90" waitingTime="0.00" waitingCount="0" stopTime="0.00" timeLoss="10.85" rerouteNo="0" devices="tripinfo_6" vType="car" speedFactor="1.05" vaporized=""/>
    <tripinfo id="7" depart="14.00" departLane="SR_0" departPos="5.10" departSpeed="0.00" departDelay="7.00" arrival="65.00" arrivalLane="NL_0" arrivalPos="192.80" arrivalSpeed="9.30" duration="51.00" routeLength="394.90" waitingTime="0.00" waitingCount="0" stopTime="0.00" timeLoss="11.29" rerouteNo="0" devices="tripinfo_7" vType="car" speedFactor="0.89" vaporized=""/>
    <tripinfo id="0" depart="0.00" departLane="WR_0" departPos="5.10" departSpeed="0.00" departDelay="0.00" arrival="252.00" arrivalLane="EL_0" arrivalPos="192.80" arrivalSpeed="7.68" duration="252.00" routeLength="394.90" waitingTime="200.00" waitingCount="1" stopTime="0.00" timeLoss="212.17" rerouteNo="0" devices="tripinfo_0" vType="car" speedFactor="1.06" vaporized=""/>
    <tripinfo id="1" depart="3.00" departLane="WR_0" departPos="5.10" departSpeed="0.00" departDelay="2.00" arrival="255.00" arrivalLane="EL_0" arrivalPos="192.80" arrivalSpeed="6.93" duration="252.00" routeLength="394.90" waitingTime="196.00" waitingCount="2" stopTime="0.00" timeLoss="212.44" rerouteNo="0" devices="tripinfo_1" vType="car" speedFactor="0.94" vaporized=""/>
    <tripinfo id="2" depart="6.00" departLane="WR_0" departPos="5.10" departSpeed="0.00" departDelay="4.00" arrival="258.00" arrivalLane="EL_0" arrivalPos="192.80" arrivalSpeed="8.94" duration="252.00" routeLength="394.90" waitingTime="194.00" waitingCount="1" stopTime="0.00" timeLoss="212.13" rerouteNo="0" devices="tripinfo_2" vType="car" speedFactor="1.01" vaporized=""/>
    <tripinfo id="3" depart="9.00" departLane="WR_0" departPos="5.10" departSpeed="0.00" departDelay="6.00" arrival="261.00" arrivalLane="EL_0" arrivalPos="192.80" arrivalSpeed="9.63" duration="252.00" routeLength="394.90" waitingTime="192.00" waitingCount="2" stopTime="0.00" timeLoss="212.14" rerouteNo="0" devices="tripinfo_3" vType="car" speedFactor="1.08" vaporized=""/>
    <tripinfo id="8" depart="200.00" departLane="WR_0" departPos="5.10" departSpeed="0.00" departDelay="0.00" arrival="264.00" arrivalLane="EL_0" arrivalPos="192.80" arrivalSpeed="7.76" duration="64.00" routeLength="394.90" waitingTime="5.00" waitingCount="1" stopTime="0.00" timeLoss="24.12" rerouteNo="0" devices="tripinfo_8" vType="car" speedFactor="0.94" vaporized=""/>
</tripinfos>
